V -t * -v 1.0a5 -a 0
A -t * -n 1 -p 0 -o 0x7fffffff -c 30 -a 1
A -t * -h 1 -m 1073741823 -s 0
c -t * -i 1 -n red
c -t * -i 2 -n blue
n -t * -a 4 -s 4 -S UP -v circle -c blue -i blue
n -t * -a 0 -s 0 -S UP -v circle -c blue -i blue
n -t * -a 5 -s 5 -S UP -v box -c red -i red
n -t * -a 1 -s 1 -S UP -v box -c red -i red
n -t * -a 6 -s 6 -S UP -v circle -c black -i black
n -t * -a 2 -s 2 -S UP -v circle -c black -i black
n -t * -a 3 -s 3 -S UP -v circle -c black -i black
l -t * -s 0 -d 2 -S UP -r 1000000 -D 0.01 -c black -o right-down
l -t * -s 1 -d 2 -S UP -r 1000000 -D 0.01 -c black -o right-up
l -t * -s 2 -d 3 -S UP -r 300000 -D 0.10000000000000001 -c black -o right
X -t * -n 7 -r 0.5Mb -D 40ms -o left
L -t * -s 7 -d 3 -o up
L -t * -s 7 -d 4 -o down
L -t * -s 7 -d 5 -o up
L -t * -s 7 -d 6 -o down
n -t 0 -s 0 -S DLABEL -l "TCP_Traffic" -L ""
n -t 0 -s 1 -S DLABEL -l "UDP_Traffic" -L ""
+ -t 0.3 -s 1 -d 2 -p cbr -e 1000 -c 2 -i 0 -a 2 -x {1.0 6.0 0 ------- null}
- -t 0.3 -s 1 -d 2 -p cbr -e 1000 -c 2 -i 0 -a 2 -x {1.0 6.0 0 ------- null}
h -t 0.3 -s 1 -d 2 -p cbr -e 1000 -c 2 -i 0 -a 2 -x {1.0 6.0 -1 ------- null}
r -t 0.318 -s 1 -d 2 -p cbr -e 1000 -c 2 -i 0 -a 2 -x {1.0 6.0 0 ------- null}
+ -t 0.318 -s 2 -d 3 -p cbr -e 1000 -c 2 -i 0 -a 2 -x {1.0 6.0 0 ------- null}
- -t 0.318 -s 2 -d 3 -p cbr -e 1000 -c 2 -i 0 -a 2 -x {1.0 6.0 0 ------- null}
h -t 0.318 -s 2 -d 3 -p cbr -e 1000 -c 2 -i 0 -a 2 -x {1.0 6.0 -1 ------- null}
r -t 0.444666666666667 -s 2 -d 3 -p cbr -e 1000 -c 2 -i 0 -a 2 -x {1.0 6.0 0 ------- null}
h -t 0.444666666666667 -s 3 -d 7 -p cbr -e 1000 -c 2 -i 0 -a 2 -x {1.0 6.0 0 ------- null}
+ -t 0.46 -s 1 -d 2 -p cbr -e 1000 -c 2 -i 1 -a 2 -x {1.0 6.0 1 ------- null}
- -t 0.46 -s 1 -d 2 -p cbr -e 1000 -c 2 -i 1 -a 2 -x {1.0 6.0 1 ------- null}
h -t 0.46 -s 1 -d 2 -p cbr -e 1000 -c 2 -i 1 -a 2 -x {1.0 6.0 -1 ------- null}
r -t 0.478 -s 1 -d 2 -p cbr -e 1000 -c 2 -i 1 -a 2 -x {1.0 6.0 1 ------- null}
+ -t 0.478 -s 2 -d 3 -p cbr -e 1000 -c 2 -i 1 -a 2 -x {1.0 6.0 1 ------- null}
- -t 0.478 -s 2 -d 3 -p cbr -e 1000 -c 2 -i 1 -a 2 -x {1.0 6.0 1 ------- null}
h -t 0.478 -s 2 -d 3 -p cbr -e 1000 -c 2 -i 1 -a 2 -x {1.0 6.0 -1 ------- null}
+ -t 0.484666666666667 -s 3 -d 7 -p cbr -e 1000 -c 2 -i 0 -a 2 -x {1.0 6.0 0 ------- null}
- -t 0.484666666666667 -s 3 -d 7 -p cbr -e 1000 -c 2 -i 0 -a 2 -x {1.0 6.0 0 ------- null}
h -t 0.484666666666667 -s 3 -d 7 -p cbr -e 1000 -c 2 -i 0 -a 2 -x {1.0 6.0 -1 ------- null}
d -t 0.484670666666667 -s 5 -d 7 -p cbr -e 1000 -c 2 -i 0 -a 2 -x {1.0 6.0 0 ------- null}
d -t 0.484670666666667 -s 4 -d 7 -p cbr -e 1000 -c 2 -i 0 -a 2 -x {1.0 6.0 0 ------- null}
r -t 0.524670666666667 -s 7 -d 6 -p cbr -e 1000 -c 2 -i 0 -a 2 -x {1.0 6.0 0 ------- null}
r -t 0.604666666666667 -s 2 -d 3 -p cbr -e 1000 -c 2 -i 1 -a 2 -x {1.0 6.0 1 ------- null}
h -t 0.604666666666667 -s 3 -d 7 -p cbr -e 1000 -c 2 -i 1 -a 2 -x {1.0 6.0 1 ------- null}
+ -t 0.62 -s 1 -d 2 -p cbr -e 1000 -c 2 -i 2 -a 2 -x {1.0 6.0 2 ------- null}
- -t 0.62 -s 1 -d 2 -p cbr -e 1000 -c 2 -i 2 -a 2 -x {1.0 6.0 2 ------- null}
h -t 0.62 -s 1 -d 2 -p cbr -e 1000 -c 2 -i 2 -a 2 -x {1.0 6.0 -1 ------- null}
r -t 0.638 -s 1 -d 2 -p cbr -e 1000 -c 2 -i 2 -a 2 -x {1.0 6.0 2 ------- null}
+ -t 0.638 -s 2 -d 3 -p cbr -e 1000 -c 2 -i 2 -a 2 -x {1.0 6.0 2 ------- null}
- -t 0.638 -s 2 -d 3 -p cbr -e 1000 -c 2 -i 2 -a 2 -x {1.0 6.0 2 ------- null}
h -t 0.638 -s 2 -d 3 -p cbr -e 1000 -c 2 -i 2 -a 2 -x {1.0 6.0 -1 ------- null}
+ -t 0.644666666666667 -s 3 -d 7 -p cbr -e 1000 -c 2 -i 1 -a 2 -x {1.0 6.0 1 ------- null}
- -t 0.644666666666667 -s 3 -d 7 -p cbr -e 1000 -c 2 -i 1 -a 2 -x {1.0 6.0 1 ------- null}
h -t 0.644666666666667 -s 3 -d 7 -p cbr -e 1000 -c 2 -i 1 -a 2 -x {1.0 6.0 -1 ------- null}
d -t 0.644670666666667 -s 5 -d 7 -p cbr -e 1000 -c 2 -i 1 -a 2 -x {1.0 6.0 1 ------- null}
d -t 0.644670666666667 -s 4 -d 7 -p cbr -e 1000 -c 2 -i 1 -a 2 -x {1.0 6.0 1 ------- null}
r -t 0.684670666666667 -s 7 -d 6 -p cbr -e 1000 -c 2 -i 1 -a 2 -x {1.0 6.0 1 ------- null}
r -t 0.764666666666667 -s 2 -d 3 -p cbr -e 1000 -c 2 -i 2 -a 2 -x {1.0 6.0 2 ------- null}
h -t 0.764666666666667 -s 3 -d 7 -p cbr -e 1000 -c 2 -i 2 -a 2 -x {1.0 6.0 2 ------- null}
+ -t 0.78 -s 1 -d 2 -p cbr -e 1000 -c 2 -i 3 -a 2 -x {1.0 6.0 3 ------- null}
- -t 0.78 -s 1 -d 2 -p cbr -e 1000 -c 2 -i 3 -a 2 -x {1.0 6.0 3 ------- null}
h -t 0.78 -s 1 -d 2 -p cbr -e 1000 -c 2 -i 3 -a 2 -x {1.0 6.0 -1 ------- null}
r -t 0.798 -s 1 -d 2 -p cbr -e 1000 -c 2 -i 3 -a 2 -x {1.0 6.0 3 ------- null}
+ -t 0.798 -s 2 -d 3 -p cbr -e 1000 -c 2 -i 3 -a 2 -x {1.0 6.0 3 ------- null}
- -t 0.798 -s 2 -d 3 -p cbr -e 1000 -c 2 -i 3 -a 2 -x {1.0 6.0 3 ------- null}
h -t 0.798 -s 2 -d 3 -p cbr -e 1000 -c 2 -i 3 -a 2 -x {1.0 6.0 -1 ------- null}
+ -t 0.8 -s 0 -d 2 -p tcp -e 40 -c 1 -i 4 -a 1 -x {0.0 4.0 0 ------- null}
- -t 0.8 -s 0 -d 2 -p tcp -e 40 -c 1 -i 4 -a 1 -x {0.0 4.0 0 ------- null}
h -t 0.8 -s 0 -d 2 -p tcp -e 40 -c 1 -i 4 -a 1 -x {0.0 4.0 -1 ------- null}
+ -t 0.804666666666667 -s 3 -d 7 -p cbr -e 1000 -c 2 -i 2 -a 2 -x {1.0 6.0 2 ------- null}
- -t 0.804666666666667 -s 3 -d 7 -p cbr -e 1000 -c 2 -i 2 -a 2 -x {1.0 6.0 2 ------- null}
h -t 0.804666666666667 -s 3 -d 7 -p cbr -e 1000 -c 2 -i 2 -a 2 -x {1.0 6.0 -1 ------- null}
d -t 0.804670666666667 -s 5 -d 7 -p cbr -e 1000 -c 2 -i 2 -a 2 -x {1.0 6.0 2 ------- null}
d -t 0.804670666666667 -s 4 -d 7 -p cbr -e 1000 -c 2 -i 2 -a 2 -x {1.0 6.0 2 ------- null}
r -t 0.81032 -s 0 -d 2 -p tcp -e 40 -c 1 -i 4 -a 1 -x {0.0 4.0 0 ------- null}
+ -t 0.81032 -s 2 -d 3 -p tcp -e 40 -c 1 -i 4 -a 1 -x {0.0 4.0 0 ------- null}
- -t 0.824666666666667 -s 2 -d 3 -p tcp -e 40 -c 1 -i 4 -a 1 -x {0.0 4.0 0 ------- null}
h -t 0.824666666666667 -s 2 -d 3 -p tcp -e 40 -c 1 -i 4 -a 1 -x {0.0 4.0 -1 ------- null}
r -t 0.844670666666667 -s 7 -d 6 -p cbr -e 1000 -c 2 -i 2 -a 2 -x {1.0 6.0 2 ------- null}
r -t 0.924666666666667 -s 2 -d 3 -p cbr -e 1000 -c 2 -i 3 -a 2 -x {1.0 6.0 3 ------- null}
h -t 0.924666666666667 -s 3 -d 7 -p cbr -e 1000 -c 2 -i 3 -a 2 -x {1.0 6.0 3 ------- null}
r -t 0.925733333333333 -s 2 -d 3 -p tcp -e 40 -c 1 -i 4 -a 1 -x {0.0 4.0 0 ------- null}
h -t 0.925733333333333 -s 3 -d 7 -p tcp -e 40 -c 1 -i 4 -a 1 -x {0.0 4.0 0 ------- null}
+ -t 0.94 -s 1 -d 2 -p cbr -e 1000 -c 2 -i 5 -a 2 -x {1.0 6.0 4 ------- null}
- -t 0.94 -s 1 -d 2 -p cbr -e 1000 -c 2 -i 5 -a 2 -x {1.0 6.0 4 ------- null}
h -t 0.94 -s 1 -d 2 -p cbr -e 1000 -c 2 -i 5 -a 2 -x {1.0 6.0 -1 ------- null}
r -t 0.958 -s 1 -d 2 -p cbr -e 1000 -c 2 -i 5 -a 2 -x {1.0 6.0 4 ------- null}
+ -t 0.958 -s 2 -d 3 -p cbr -e 1000 -c 2 -i 5 -a 2 -x {1.0 6.0 4 ------- null}
- -t 0.958 -s 2 -d 3 -p cbr -e 1000 -c 2 -i 5 -a 2 -x {1.0 6.0 4 ------- null}
h -t 0.958 -s 2 -d 3 -p cbr -e 1000 -c 2 -i 5 -a 2 -x {1.0 6.0 -1 ------- null}
+ -t 0.964666666666667 -s 3 -d 7 -p cbr -e 1000 -c 2 -i 3 -a 2 -x {1.0 6.0 3 ------- null}
- -t 0.964666666666667 -s 3 -d 7 -p cbr -e 1000 -c 2 -i 3 -a 2 -x {1.0 6.0 3 ------- null}
h -t 0.964666666666667 -s 3 -d 7 -p cbr -e 1000 -c 2 -i 3 -a 2 -x {1.0 6.0 -1 ------- null}
d -t 0.964670666666667 -s 5 -d 7 -p cbr -e 1000 -c 2 -i 3 -a 2 -x {1.0 6.0 3 ------- null}
d -t 0.964670666666667 -s 4 -d 7 -p cbr -e 1000 -c 2 -i 3 -a 2 -x {1.0 6.0 3 ------- null}
+ -t 0.965733333333333 -s 3 -d 7 -p tcp -e 40 -c 1 -i 4 -a 1 -x {0.0 4.0 0 ------- null}
- -t 0.968922666666667 -s 3 -d 7 -p tcp -e 40 -c 1 -i 4 -a 1 -x {0.0 4.0 0 ------- null}
h -t 0.968922666666667 -s 3 -d 7 -p tcp -e 40 -c 1 -i 4 -a 1 -x {0.0 4.0 -1 ------- null}
d -t 0.968926666666667 -s 6 -d 7 -p tcp -e 40 -c 1 -i 4 -a 1 -x {0.0 4.0 0 ------- null}
d -t 0.968926666666667 -s 5 -d 7 -p tcp -e 40 -c 1 -i 4 -a 1 -x {0.0 4.0 0 ------- null}
r -t 1.00467066666667 -s 7 -d 6 -p cbr -e 1000 -c 2 -i 3 -a 2 -x {1.0 6.0 3 ------- null}
r -t 1.00892666666667 -s 7 -d 4 -p tcp -e 40 -c 1 -i 4 -a 1 -x {0.0 4.0 0 ------- null}
h -t 1.00892666666667 -s 4 -d 7 -p ack -e 40 -c 1 -i 6 -a 1 -x {4.0 0.0 0 ------- null}
+ -t 1.04892666666667 -s 4 -d 7 -p ack -e 40 -c 1 -i 6 -a 1 -x {4.0 0.0 0 ------- null}
- -t 1.04892666666667 -s 4 -d 7 -p ack -e 40 -c 1 -i 6 -a 1 -x {4.0 0.0 0 ------- null}
h -t 1.04892666666667 -s 4 -d 7 -p ack -e 40 -c 1 -i 6 -a 1 -x {4.0 0.0 -1 ------- null}
d -t 1.04893066666667 -s 6 -d 7 -p ack -e 40 -c 1 -i 6 -a 1 -x {4.0 0.0 0 ------- null}
d -t 1.04893066666667 -s 5 -d 7 -p ack -e 40 -c 1 -i 6 -a 1 -x {4.0 0.0 0 ------- null}
r -t 1.08466666666667 -s 2 -d 3 -p cbr -e 1000 -c 2 -i 5 -a 2 -x {1.0 6.0 4 ------- null}
h -t 1.08466666666667 -s 3 -d 7 -p cbr -e 1000 -c 2 -i 5 -a 2 -x {1.0 6.0 4 ------- null}
r -t 1.08893066666667 -s 7 -d 3 -p ack -e 40 -c 1 -i 6 -a 1 -x {4.0 0.0 0 ------- null}
+ -t 1.08893066666667 -s 3 -d 2 -p ack -e 40 -c 1 -i 6 -a 1 -x {4.0 0.0 0 ------- null}
- -t 1.08893066666667 -s 3 -d 2 -p ack -e 40 -c 1 -i 6 -a 1 -x {4.0 0.0 0 ------- null}
h -t 1.08893066666667 -s 3 -d 2 -p ack -e 40 -c 1 -i 6 -a 1 -x {4.0 0.0 -1 ------- null}
+ -t 1.1 -s 1 -d 2 -p cbr -e 1000 -c 2 -i 7 -a 2 -x {1.0 6.0 5 ------- null}
- -t 1.1 -s 1 -d 2 -p cbr -e 1000 -c 2 -i 7 -a 2 -x {1.0 6.0 5 ------- null}
h -t 1.1 -s 1 -d 2 -p cbr -e 1000 -c 2 -i 7 -a 2 -x {1.0 6.0 -1 ------- null}
r -t 1.118 -s 1 -d 2 -p cbr -e 1000 -c 2 -i 7 -a 2 -x {1.0 6.0 5 ------- null}
+ -t 1.118 -s 2 -d 3 -p cbr -e 1000 -c 2 -i 7 -a 2 -x {1.0 6.0 5 ------- null}
- -t 1.118 -s 2 -d 3 -p cbr -e 1000 -c 2 -i 7 -a 2 -x {1.0 6.0 5 ------- null}
h -t 1.118 -s 2 -d 3 -p cbr -e 1000 -c 2 -i 7 -a 2 -x {1.0 6.0 -1 ------- null}
+ -t 1.12466666666667 -s 3 -d 7 -p cbr -e 1000 -c 2 -i 5 -a 2 -x {1.0 6.0 4 ------- null}
- -t 1.12466666666667 -s 3 -d 7 -p cbr -e 1000 -c 2 -i 5 -a 2 -x {1.0 6.0 4 ------- null}
h -t 1.12466666666667 -s 3 -d 7 -p cbr -e 1000 -c 2 -i 5 -a 2 -x {1.0 6.0 -1 ------- null}
d -t 1.12467066666667 -s 5 -d 7 -p cbr -e 1000 -c 2 -i 5 -a 2 -x {1.0 6.0 4 ------- null}
d -t 1.12467066666667 -s 4 -d 7 -p cbr -e 1000 -c 2 -i 5 -a 2 -x {1.0 6.0 4 ------- null}
r -t 1.16467066666667 -s 7 -d 6 -p cbr -e 1000 -c 2 -i 5 -a 2 -x {1.0 6.0 4 ------- null}
r -t 1.18999733333333 -s 3 -d 2 -p ack -e 40 -c 1 -i 6 -a 1 -x {4.0 0.0 0 ------- null}
+ -t 1.18999733333333 -s 2 -d 0 -p ack -e 40 -c 1 -i 6 -a 1 -x {4.0 0.0 0 ------- null}
- -t 1.18999733333333 -s 2 -d 0 -p ack -e 40 -c 1 -i 6 -a 1 -x {4.0 0.0 0 ------- null}
h -t 1.18999733333333 -s 2 -d 0 -p ack -e 40 -c 1 -i 6 -a 1 -x {4.0 0.0 -1 ------- null}
r -t 1.20031733333333 -s 2 -d 0 -p ack -e 40 -c 1 -i 6 -a 1 -x {4.0 0.0 0 ------- null}
+ -t 1.20031733333333 -s 0 -d 2 -p tcp -e 592 -c 1 -i 8 -a 1 -x {0.0 4.0 1 ------- null}
- -t 1.20031733333333 -s 0 -d 2 -p tcp -e 592 -c 1 -i 8 -a 1 -x {0.0 4.0 1 ------- null}
h -t 1.20031733333333 -s 0 -d 2 -p tcp -e 592 -c 1 -i 8 -a 1 -x {0.0 4.0 -1 ------- null}
+ -t 1.20031733333333 -s 0 -d 2 -p tcp -e 592 -c 1 -i 9 -a 1 -x {0.0 4.0 2 ------- null}
- -t 1.20505333333333 -s 0 -d 2 -p tcp -e 592 -c 1 -i 9 -a 1 -x {0.0 4.0 2 ------- null}
h -t 1.20505333333333 -s 0 -d 2 -p tcp -e 592 -c 1 -i 9 -a 1 -x {0.0 4.0 -1 ------- null}
r -t 1.21505333333333 -s 0 -d 2 -p tcp -e 592 -c 1 -i 8 -a 1 -x {0.0 4.0 1 ------- null}
+ -t 1.21505333333333 -s 2 -d 3 -p tcp -e 592 -c 1 -i 8 -a 1 -x {0.0 4.0 1 ------- null}
- -t 1.21505333333333 -s 2 -d 3 -p tcp -e 592 -c 1 -i 8 -a 1 -x {0.0 4.0 1 ------- null}
h -t 1.21505333333333 -s 2 -d 3 -p tcp -e 592 -c 1 -i 8 -a 1 -x {0.0 4.0 -1 ------- null}
r -t 1.21978933333333 -s 0 -d 2 -p tcp -e 592 -c 1 -i 9 -a 1 -x {0.0 4.0 2 ------- null}
+ -t 1.21978933333333 -s 2 -d 3 -p tcp -e 592 -c 1 -i 9 -a 1 -x {0.0 4.0 2 ------- null}
- -t 1.23084 -s 2 -d 3 -p tcp -e 592 -c 1 -i 9 -a 1 -x {0.0 4.0 2 ------- null}
h -t 1.23084 -s 2 -d 3 -p tcp -e 592 -c 1 -i 9 -a 1 -x {0.0 4.0 -1 ------- null}
r -t 1.24466666666667 -s 2 -d 3 -p cbr -e 1000 -c 2 -i 7 -a 2 -x {1.0 6.0 5 ------- null}
h -t 1.24466666666667 -s 3 -d 7 -p cbr -e 1000 -c 2 -i 7 -a 2 -x {1.0 6.0 5 ------- null}
+ -t 1.26 -s 1 -d 2 -p cbr -e 1000 -c 2 -i 10 -a 2 -x {1.0 6.0 6 ------- null}
- -t 1.26 -s 1 -d 2 -p cbr -e 1000 -c 2 -i 10 -a 2 -x {1.0 6.0 6 ------- null}
h -t 1.26 -s 1 -d 2 -p cbr -e 1000 -c 2 -i 10 -a 2 -x {1.0 6.0 -1 ------- null}
r -t 1.278 -s 1 -d 2 -p cbr -e 1000 -c 2 -i 10 -a 2 -x {1.0 6.0 6 ------- null}
+ -t 1.278 -s 2 -d 3 -p cbr -e 1000 -c 2 -i 10 -a 2 -x {1.0 6.0 6 ------- null}
- -t 1.278 -s 2 -d 3 -p cbr -e 1000 -c 2 -i 10 -a 2 -x {1.0 6.0 6 ------- null}
h -t 1.278 -s 2 -d 3 -p cbr -e 1000 -c 2 -i 10 -a 2 -x {1.0 6.0 -1 ------- null}
+ -t 1.28466666666667 -s 3 -d 7 -p cbr -e 1000 -c 2 -i 7 -a 2 -x {1.0 6.0 5 ------- null}
- -t 1.28466666666667 -s 3 -d 7 -p cbr -e 1000 -c 2 -i 7 -a 2 -x {1.0 6.0 5 ------- null}
h -t 1.28466666666667 -s 3 -d 7 -p cbr -e 1000 -c 2 -i 7 -a 2 -x {1.0 6.0 -1 ------- null}
d -t 1.28467066666667 -s 5 -d 7 -p cbr -e 1000 -c 2 -i 7 -a 2 -x {1.0 6.0 5 ------- null}
d -t 1.28467066666667 -s 4 -d 7 -p cbr -e 1000 -c 2 -i 7 -a 2 -x {1.0 6.0 5 ------- null}
r -t 1.32467066666667 -s 7 -d 6 -p cbr -e 1000 -c 2 -i 7 -a 2 -x {1.0 6.0 5 ------- null}
r -t 1.33084 -s 2 -d 3 -p tcp -e 592 -c 1 -i 8 -a 1 -x {0.0 4.0 1 ------- null}
h -t 1.33084 -s 3 -d 7 -p tcp -e 592 -c 1 -i 8 -a 1 -x {0.0 4.0 1 ------- null}
r -t 1.34662666666667 -s 2 -d 3 -p tcp -e 592 -c 1 -i 9 -a 1 -x {0.0 4.0 2 ------- null}
h -t 1.34662666666667 -s 3 -d 7 -p tcp -e 592 -c 1 -i 9 -a 1 -x {0.0 4.0 2 ------- null}
+ -t 1.37084 -s 3 -d 7 -p tcp -e 592 -c 1 -i 8 -a 1 -x {0.0 4.0 1 ------- null}
- -t 1.37084 -s 3 -d 7 -p tcp -e 592 -c 1 -i 8 -a 1 -x {0.0 4.0 1 ------- null}
h -t 1.37084 -s 3 -d 7 -p tcp -e 592 -c 1 -i 8 -a 1 -x {0.0 4.0 -1 ------- null}
d -t 1.370844 -s 6 -d 7 -p tcp -e 592 -c 1 -i 8 -a 1 -x {0.0 4.0 1 ------- null}
d -t 1.370844 -s 5 -d 7 -p tcp -e 592 -c 1 -i 8 -a 1 -x {0.0 4.0 1 ------- null}
+ -t 1.38662666666667 -s 3 -d 7 -p tcp -e 592 -c 1 -i 9 -a 1 -x {0.0 4.0 2 ------- null}
- -t 1.38662666666667 -s 3 -d 7 -p tcp -e 592 -c 1 -i 9 -a 1 -x {0.0 4.0 2 ------- null}
h -t 1.38662666666667 -s 3 -d 7 -p tcp -e 592 -c 1 -i 9 -a 1 -x {0.0 4.0 -1 ------- null}
d -t 1.38663066666667 -s 6 -d 7 -p tcp -e 592 -c 1 -i 9 -a 1 -x {0.0 4.0 2 ------- null}
d -t 1.38663066666667 -s 5 -d 7 -p tcp -e 592 -c 1 -i 9 -a 1 -x {0.0 4.0 2 ------- null}
r -t 1.40466666666667 -s 2 -d 3 -p cbr -e 1000 -c 2 -i 10 -a 2 -x {1.0 6.0 6 ------- null}
h -t 1.40466666666667 -s 3 -d 7 -p cbr -e 1000 -c 2 -i 10 -a 2 -x {1.0 6.0 6 ------- null}
r -t 1.410844 -s 7 -d 4 -p tcp -e 592 -c 1 -i 8 -a 1 -x {0.0 4.0 1 ------- null}
h -t 1.410844 -s 4 -d 7 -p ack -e 40 -c 1 -i 11 -a 1 -x {4.0 0.0 1 ------- null}
+ -t 1.42 -s 1 -d 2 -p cbr -e 1000 -c 2 -i 12 -a 2 -x {1.0 6.0 7 ------- null}
- -t 1.42 -s 1 -d 2 -p cbr -e 1000 -c 2 -i 12 -a 2 -x {1.0 6.0 7 ------- null}
h -t 1.42 -s 1 -d 2 -p cbr -e 1000 -c 2 -i 12 -a 2 -x {1.0 6.0 -1 ------- null}
r -t 1.42663066666667 -s 7 -d 4 -p tcp -e 592 -c 1 -i 9 -a 1 -x {0.0 4.0 2 ------- null}
h -t 1.42663066666667 -s 4 -d 7 -p ack -e 40 -c 1 -i 13 -a 1 -x {4.0 0.0 2 ------- null}
r -t 1.438 -s 1 -d 2 -p cbr -e 1000 -c 2 -i 12 -a 2 -x {1.0 6.0 7 ------- null}
+ -t 1.438 -s 2 -d 3 -p cbr -e 1000 -c 2 -i 12 -a 2 -x {1.0 6.0 7 ------- null}
- -t 1.438 -s 2 -d 3 -p cbr -e 1000 -c 2 -i 12 -a 2 -x {1.0 6.0 7 ------- null}
h -t 1.438 -s 2 -d 3 -p cbr -e 1000 -c 2 -i 12 -a 2 -x {1.0 6.0 -1 ------- null}
+ -t 1.44466666666667 -s 3 -d 7 -p cbr -e 1000 -c 2 -i 10 -a 2 -x {1.0 6.0 6 ------- null}
- -t 1.44466666666667 -s 3 -d 7 -p cbr -e 1000 -c 2 -i 10 -a 2 -x {1.0 6.0 6 ------- null}
h -t 1.44466666666667 -s 3 -d 7 -p cbr -e 1000 -c 2 -i 10 -a 2 -x {1.0 6.0 -1 ------- null}
d -t 1.44467066666667 -s 5 -d 7 -p cbr -e 1000 -c 2 -i 10 -a 2 -x {1.0 6.0 6 ------- null}
d -t 1.44467066666667 -s 4 -d 7 -p cbr -e 1000 -c 2 -i 10 -a 2 -x {1.0 6.0 6 ------- null}
+ -t 1.450844 -s 4 -d 7 -p ack -e 40 -c 1 -i 11 -a 1 -x {4.0 0.0 1 ------- null}
- -t 1.450844 -s 4 -d 7 -p ack -e 40 -c 1 -i 11 -a 1 -x {4.0 0.0 1 ------- null}
h -t 1.450844 -s 4 -d 7 -p ack -e 40 -c 1 -i 11 -a 1 -x {4.0 0.0 -1 ------- null}
d -t 1.450848 -s 6 -d 7 -p ack -e 40 -c 1 -i 11 -a 1 -x {4.0 0.0 1 ------- null}
d -t 1.450848 -s 5 -d 7 -p ack -e 40 -c 1 -i 11 -a 1 -x {4.0 0.0 1 ------- null}
+ -t 1.46663066666667 -s 4 -d 7 -p ack -e 40 -c 1 -i 13 -a 1 -x {4.0 0.0 2 ------- null}
- -t 1.46663066666667 -s 4 -d 7 -p ack -e 40 -c 1 -i 13 -a 1 -x {4.0 0.0 2 ------- null}
h -t 1.46663066666667 -s 4 -d 7 -p ack -e 40 -c 1 -i 13 -a 1 -x {4.0 0.0 -1 ------- null}
d -t 1.46663466666667 -s 6 -d 7 -p ack -e 40 -c 1 -i 13 -a 1 -x {4.0 0.0 2 ------- null}
d -t 1.46663466666667 -s 5 -d 7 -p ack -e 40 -c 1 -i 13 -a 1 -x {4.0 0.0 2 ------- null}
r -t 1.48467066666667 -s 7 -d 6 -p cbr -e 1000 -c 2 -i 10 -a 2 -x {1.0 6.0 6 ------- null}
r -t 1.490848 -s 7 -d 3 -p ack -e 40 -c 1 -i 11 -a 1 -x {4.0 0.0 1 ------- null}
+ -t 1.490848 -s 3 -d 2 -p ack -e 40 -c 1 -i 11 -a 1 -x {4.0 0.0 1 ------- null}
- -t 1.490848 -s 3 -d 2 -p ack -e 40 -c 1 -i 11 -a 1 -x {4.0 0.0 1 ------- null}
h -t 1.490848 -s 3 -d 2 -p ack -e 40 -c 1 -i 11 -a 1 -x {4.0 0.0 -1 ------- null}
r -t 1.50663466666667 -s 7 -d 3 -p ack -e 40 -c 1 -i 13 -a 1 -x {4.0 0.0 2 ------- null}
+ -t 1.50663466666667 -s 3 -d 2 -p ack -e 40 -c 1 -i 13 -a 1 -x {4.0 0.0 2 ------- null}
- -t 1.50663466666667 -s 3 -d 2 -p ack -e 40 -c 1 -i 13 -a 1 -x {4.0 0.0 2 ------- null}
h -t 1.50663466666667 -s 3 -d 2 -p ack -e 40 -c 1 -i 13 -a 1 -x {4.0 0.0 -1 ------- null}
r -t 1.56466666666667 -s 2 -d 3 -p cbr -e 1000 -c 2 -i 12 -a 2 -x {1.0 6.0 7 ------- null}
h -t 1.56466666666667 -s 3 -d 7 -p cbr -e 1000 -c 2 -i 12 -a 2 -x {1.0 6.0 7 ------- null}
+ -t 1.58 -s 1 -d 2 -p cbr -e 1000 -c 2 -i 14 -a 2 -x {1.0 6.0 8 ------- null}
- -t 1.58 -s 1 -d 2 -p cbr -e 1000 -c 2 -i 14 -a 2 -x {1.0 6.0 8 ------- null}
h -t 1.58 -s 1 -d 2 -p cbr -e 1000 -c 2 -i 14 -a 2 -x {1.0 6.0 -1 ------- null}
r -t 1.59191466666667 -s 3 -d 2 -p ack -e 40 -c 1 -i 11 -a 1 -x {4.0 0.0 1 ------- null}
+ -t 1.59191466666667 -s 2 -d 0 -p ack -e 40 -c 1 -i 11 -a 1 -x {4.0 0.0 1 ------- null}
- -t 1.59191466666667 -s 2 -d 0 -p ack -e 40 -c 1 -i 11 -a 1 -x {4.0 0.0 1 ------- null}
h -t 1.59191466666667 -s 2 -d 0 -p ack -e 40 -c 1 -i 11 -a 1 -x {4.0 0.0 -1 ------- null}
r -t 1.598 -s 1 -d 2 -p cbr -e 1000 -c 2 -i 14 -a 2 -x {1.0 6.0 8 ------- null}
+ -t 1.598 -s 2 -d 3 -p cbr -e 1000 -c 2 -i 14 -a 2 -x {1.0 6.0 8 ------- null}
- -t 1.598 -s 2 -d 3 -p cbr -e 1000 -c 2 -i 14 -a 2 -x {1.0 6.0 8 ------- null}
h -t 1.598 -s 2 -d 3 -p cbr -e 1000 -c 2 -i 14 -a 2 -x {1.0 6.0 -1 ------- null}
r -t 1.60223466666667 -s 2 -d 0 -p ack -e 40 -c 1 -i 11 -a 1 -x {4.0 0.0 1 ------- null}
+ -t 1.60223466666667 -s 0 -d 2 -p tcp -e 592 -c 1 -i 15 -a 1 -x {0.0 4.0 3 ------- null}
- -t 1.60223466666667 -s 0 -d 2 -p tcp -e 592 -c 1 -i 15 -a 1 -x {0.0 4.0 3 ------- null}
h -t 1.60223466666667 -s 0 -d 2 -p tcp -e 592 -c 1 -i 15 -a 1 -x {0.0 4.0 -1 ------- null}
+ -t 1.60223466666667 -s 0 -d 2 -p tcp -e 592 -c 1 -i 16 -a 1 -x {0.0 4.0 4 ------- null}
+ -t 1.60466666666667 -s 3 -d 7 -p cbr -e 1000 -c 2 -i 12 -a 2 -x {1.0 6.0 7 ------- null}
- -t 1.60466666666667 -s 3 -d 7 -p cbr -e 1000 -c 2 -i 12 -a 2 -x {1.0 6.0 7 ------- null}
h -t 1.60466666666667 -s 3 -d 7 -p cbr -e 1000 -c 2 -i 12 -a 2 -x {1.0 6.0 -1 ------- null}
d -t 1.60467066666667 -s 5 -d 7 -p cbr -e 1000 -c 2 -i 12 -a 2 -x {1.0 6.0 7 ------- null}
d -t 1.60467066666667 -s 4 -d 7 -p cbr -e 1000 -c 2 -i 12 -a 2 -x {1.0 6.0 7 ------- null}
- -t 1.60697066666667 -s 0 -d 2 -p tcp -e 592 -c 1 -i 16 -a 1 -x {0.0 4.0 4 ------- null}
h -t 1.60697066666667 -s 0 -d 2 -p tcp -e 592 -c 1 -i 16 -a 1 -x {0.0 4.0 -1 ------- null}
r -t 1.60770133333333 -s 3 -d 2 -p ack -e 40 -c 1 -i 13 -a 1 -x {4.0 0.0 2 ------- null}
+ -t 1.60770133333333 -s 2 -d 0 -p ack -e 40 -c 1 -i 13 -a 1 -x {4.0 0.0 2 ------- null}
- -t 1.60770133333333 -s 2 -d 0 -p ack -e 40 -c 1 -i 13 -a 1 -x {4.0 0.0 2 ------- null}
h -t 1.60770133333333 -s 2 -d 0 -p ack -e 40 -c 1 -i 13 -a 1 -x {4.0 0.0 -1 ------- null}
r -t 1.61697066666667 -s 0 -d 2 -p tcp -e 592 -c 1 -i 15 -a 1 -x {0.0 4.0 3 ------- null}
+ -t 1.61697066666667 -s 2 -d 3 -p tcp -e 592 -c 1 -i 15 -a 1 -x {0.0 4.0 3 ------- null}
r -t 1.61802133333333 -s 2 -d 0 -p ack -e 40 -c 1 -i 13 -a 1 -x {4.0 0.0 2 ------- null}
+ -t 1.61802133333333 -s 0 -d 2 -p tcp -e 592 -c 1 -i 17 -a 1 -x {0.0 4.0 5 ------- null}
- -t 1.61802133333333 -s 0 -d 2 -p tcp -e 592 -c 1 -i 17 -a 1 -x {0.0 4.0 5 ------- null}
h -t 1.61802133333333 -s 0 -d 2 -p tcp -e 592 -c 1 -i 17 -a 1 -x {0.0 4.0 -1 ------- null}
+ -t 1.61802133333333 -s 0 -d 2 -p tcp -e 592 -c 1 -i 18 -a 1 -x {0.0 4.0 6 ------- null}
r -t 1.62170666666667 -s 0 -d 2 -p tcp -e 592 -c 1 -i 16 -a 1 -x {0.0 4.0 4 ------- null}
+ -t 1.62170666666667 -s 2 -d 3 -p tcp -e 592 -c 1 -i 16 -a 1 -x {0.0 4.0 4 ------- null}
- -t 1.62275733333333 -s 0 -d 2 -p tcp -e 592 -c 1 -i 18 -a 1 -x {0.0 4.0 6 ------- null}
h -t 1.62275733333333 -s 0 -d 2 -p tcp -e 592 -c 1 -i 18 -a 1 -x {0.0 4.0 -1 ------- null}
- -t 1.62466666666667 -s 2 -d 3 -p tcp -e 592 -c 1 -i 15 -a 1 -x {0.0 4.0 3 ------- null}
h -t 1.62466666666667 -s 2 -d 3 -p tcp -e 592 -c 1 -i 15 -a 1 -x {0.0 4.0 -1 ------- null}
r -t 1.63275733333333 -s 0 -d 2 -p tcp -e 592 -c 1 -i 17 -a 1 -x {0.0 4.0 5 ------- null}
+ -t 1.63275733333333 -s 2 -d 3 -p tcp -e 592 -c 1 -i 17 -a 1 -x {0.0 4.0 5 ------- null}
r -t 1.63749333333333 -s 0 -d 2 -p tcp -e 592 -c 1 -i 18 -a 1 -x {0.0 4.0 6 ------- null}
+ -t 1.63749333333333 -s 2 -d 3 -p tcp -e 592 -c 1 -i 18 -a 1 -x {0.0 4.0 6 ------- null}
- -t 1.64045333333333 -s 2 -d 3 -p tcp -e 592 -c 1 -i 16 -a 1 -x {0.0 4.0 4 ------- null}
h -t 1.64045333333333 -s 2 -d 3 -p tcp -e 592 -c 1 -i 16 -a 1 -x {0.0 4.0 -1 ------- null}
r -t 1.64467066666667 -s 7 -d 6 -p cbr -e 1000 -c 2 -i 12 -a 2 -x {1.0 6.0 7 ------- null}
- -t 1.65624 -s 2 -d 3 -p tcp -e 592 -c 1 -i 17 -a 1 -x {0.0 4.0 5 ------- null}
h -t 1.65624 -s 2 -d 3 -p tcp -e 592 -c 1 -i 17 -a 1 -x {0.0 4.0 -1 ------- null}
- -t 1.67202666666667 -s 2 -d 3 -p tcp -e 592 -c 1 -i 18 -a 1 -x {0.0 4.0 6 ------- null}
h -t 1.67202666666667 -s 2 -d 3 -p tcp -e 592 -c 1 -i 18 -a 1 -x {0.0 4.0 -1 ------- null}
r -t 1.72466666666667 -s 2 -d 3 -p cbr -e 1000 -c 2 -i 14 -a 2 -x {1.0 6.0 8 ------- null}
h -t 1.72466666666667 -s 3 -d 7 -p cbr -e 1000 -c 2 -i 14 -a 2 -x {1.0 6.0 8 ------- null}
+ -t 1.74 -s 1 -d 2 -p cbr -e 1000 -c 2 -i 19 -a 2 -x {1.0 6.0 9 ------- null}
- -t 1.74 -s 1 -d 2 -p cbr -e 1000 -c 2 -i 19 -a 2 -x {1.0 6.0 9 ------- null}
h -t 1.74 -s 1 -d 2 -p cbr -e 1000 -c 2 -i 19 -a 2 -x {1.0 6.0 -1 ------- null}
r -t 1.74045333333333 -s 2 -d 3 -p tcp -e 592 -c 1 -i 15 -a 1 -x {0.0 4.0 3 ------- null}
h -t 1.74045333333333 -s 3 -d 7 -p tcp -e 592 -c 1 -i 15 -a 1 -x {0.0 4.0 3 ------- null}
r -t 1.75624 -s 2 -d 3 -p tcp -e 592 -c 1 -i 16 -a 1 -x {0.0 4.0 4 ------- null}
h -t 1.75624 -s 3 -d 7 -p tcp -e 592 -c 1 -i 16 -a 1 -x {0.0 4.0 4 ------- null}
r -t 1.758 -s 1 -d 2 -p cbr -e 1000 -c 2 -i 19 -a 2 -x {1.0 6.0 9 ------- null}
+ -t 1.758 -s 2 -d 3 -p cbr -e 1000 -c 2 -i 19 -a 2 -x {1.0 6.0 9 ------- null}
- -t 1.758 -s 2 -d 3 -p cbr -e 1000 -c 2 -i 19 -a 2 -x {1.0 6.0 9 ------- null}
h -t 1.758 -s 2 -d 3 -p cbr -e 1000 -c 2 -i 19 -a 2 -x {1.0 6.0 -1 ------- null}
+ -t 1.76466666666667 -s 3 -d 7 -p cbr -e 1000 -c 2 -i 14 -a 2 -x {1.0 6.0 8 ------- null}
- -t 1.76466666666667 -s 3 -d 7 -p cbr -e 1000 -c 2 -i 14 -a 2 -x {1.0 6.0 8 ------- null}
h -t 1.76466666666667 -s 3 -d 7 -p cbr -e 1000 -c 2 -i 14 -a 2 -x {1.0 6.0 -1 ------- null}
d -t 1.76467066666667 -s 5 -d 7 -p cbr -e 1000 -c 2 -i 14 -a 2 -x {1.0 6.0 8 ------- null}
d -t 1.76467066666667 -s 4 -d 7 -p cbr -e 1000 -c 2 -i 14 -a 2 -x {1.0 6.0 8 ------- null}
r -t 1.77202666666667 -s 2 -d 3 -p tcp -e 592 -c 1 -i 17 -a 1 -x {0.0 4.0 5 ------- null}
h -t 1.77202666666667 -s 3 -d 7 -p tcp -e 592 -c 1 -i 17 -a 1 -x {0.0 4.0 5 ------- null}
+ -t 1.78045333333333 -s 3 -d 7 -p tcp -e 592 -c 1 -i 15 -a 1 -x {0.0 4.0 3 ------- null}
- -t 1.78045333333333 -s 3 -d 7 -p tcp -e 592 -c 1 -i 15 -a 1 -x {0.0 4.0 3 ------- null}
h -t 1.78045333333333 -s 3 -d 7 -p tcp -e 592 -c 1 -i 15 -a 1 -x {0.0 4.0 -1 ------- null}
d -t 1.78045733333333 -s 6 -d 7 -p tcp -e 592 -c 1 -i 15 -a 1 -x {0.0 4.0 3 ------- null}
d -t 1.78045733333333 -s 5 -d 7 -p tcp -e 592 -c 1 -i 15 -a 1 -x {0.0 4.0 3 ------- null}
r -t 1.78781333333333 -s 2 -d 3 -p tcp -e 592 -c 1 -i 18 -a 1 -x {0.0 4.0 6 ------- null}
h -t 1.78781333333333 -s 3 -d 7 -p tcp -e 592 -c 1 -i 18 -a 1 -x {0.0 4.0 6 ------- null}
+ -t 1.79624 -s 3 -d 7 -p tcp -e 592 -c 1 -i 16 -a 1 -x {0.0 4.0 4 ------- null}
- -t 1.79624 -s 3 -d 7 -p tcp -e 592 -c 1 -i 16 -a 1 -x {0.0 4.0 4 ------- null}
h -t 1.79624 -s 3 -d 7 -p tcp -e 592 -c 1 -i 16 -a 1 -x {0.0 4.0 -1 ------- null}
d -t 1.796244 -s 6 -d 7 -p tcp -e 592 -c 1 -i 16 -a 1 -x {0.0 4.0 4 ------- null}
d -t 1.796244 -s 5 -d 7 -p tcp -e 592 -c 1 -i 16 -a 1 -x {0.0 4.0 4 ------- null}
r -t 1.80467066666667 -s 7 -d 6 -p cbr -e 1000 -c 2 -i 14 -a 2 -x {1.0 6.0 8 ------- null}
+ -t 1.81202666666667 -s 3 -d 7 -p tcp -e 592 -c 1 -i 17 -a 1 -x {0.0 4.0 5 ------- null}
- -t 1.81202666666667 -s 3 -d 7 -p tcp -e 592 -c 1 -i 17 -a 1 -x {0.0 4.0 5 ------- null}
h -t 1.81202666666667 -s 3 -d 7 -p tcp -e 592 -c 1 -i 17 -a 1 -x {0.0 4.0 -1 ------- null}
d -t 1.81203066666667 -s 6 -d 7 -p tcp -e 592 -c 1 -i 17 -a 1 -x {0.0 4.0 5 ------- null}
d -t 1.81203066666667 -s 5 -d 7 -p tcp -e 592 -c 1 -i 17 -a 1 -x {0.0 4.0 5 ------- null}
r -t 1.82045733333333 -s 7 -d 4 -p tcp -e 592 -c 1 -i 15 -a 1 -x {0.0 4.0 3 ------- null}
h -t 1.82045733333333 -s 4 -d 7 -p ack -e 40 -c 1 -i 20 -a 1 -x {4.0 0.0 3 ------- null}
+ -t 1.82781333333333 -s 3 -d 7 -p tcp -e 592 -c 1 -i 18 -a 1 -x {0.0 4.0 6 ------- null}
- -t 1.82781333333333 -s 3 -d 7 -p tcp -e 592 -c 1 -i 18 -a 1 -x {0.0 4.0 6 ------- null}
h -t 1.82781333333333 -s 3 -d 7 -p tcp -e 592 -c 1 -i 18 -a 1 -x {0.0 4.0 -1 ------- null}
d -t 1.82781733333333 -s 6 -d 7 -p tcp -e 592 -c 1 -i 18 -a 1 -x {0.0 4.0 6 ------- null}
d -t 1.82781733333333 -s 5 -d 7 -p tcp -e 592 -c 1 -i 18 -a 1 -x {0.0 4.0 6 ------- null}
r -t 1.836244 -s 7 -d 4 -p tcp -e 592 -c 1 -i 16 -a 1 -x {0.0 4.0 4 ------- null}
h -t 1.836244 -s 4 -d 7 -p ack -e 40 -c 1 -i 21 -a 1 -x {4.0 0.0 4 ------- null}
r -t 1.85203066666667 -s 7 -d 4 -p tcp -e 592 -c 1 -i 17 -a 1 -x {0.0 4.0 5 ------- null}
h -t 1.85203066666667 -s 4 -d 7 -p ack -e 40 -c 1 -i 22 -a 1 -x {4.0 0.0 5 ------- null}
+ -t 1.86045733333333 -s 4 -d 7 -p ack -e 40 -c 1 -i 20 -a 1 -x {4.0 0.0 3 ------- null}
- -t 1.86045733333333 -s 4 -d 7 -p ack -e 40 -c 1 -i 20 -a 1 -x {4.0 0.0 3 ------- null}
h -t 1.86045733333333 -s 4 -d 7 -p ack -e 40 -c 1 -i 20 -a 1 -x {4.0 0.0 -1 ------- null}
d -t 1.86046133333333 -s 6 -d 7 -p ack -e 40 -c 1 -i 20 -a 1 -x {4.0 0.0 3 ------- null}
d -t 1.86046133333333 -s 5 -d 7 -p ack -e 40 -c 1 -i 20 -a 1 -x {4.0 0.0 3 ------- null}
r -t 1.86781733333333 -s 7 -d 4 -p tcp -e 592 -c 1 -i 18 -a 1 -x {0.0 4.0 6 ------- null}
h -t 1.86781733333333 -s 4 -d 7 -p ack -e 40 -c 1 -i 23 -a 1 -x {4.0 0.0 6 ------- null}
+ -t 1.876244 -s 4 -d 7 -p ack -e 40 -c 1 -i 21 -a 1 -x {4.0 0.0 4 ------- null}
- -t 1.876244 -s 4 -d 7 -p ack -e 40 -c 1 -i 21 -a 1 -x {4.0 0.0 4 ------- null}
h -t 1.876244 -s 4 -d 7 -p ack -e 40 -c 1 -i 21 -a 1 -x {4.0 0.0 -1 ------- null}
d -t 1.876248 -s 6 -d 7 -p ack -e 40 -c 1 -i 21 -a 1 -x {4.0 0.0 4 ------- null}
d -t 1.876248 -s 5 -d 7 -p ack -e 40 -c 1 -i 21 -a 1 -x {4.0 0.0 4 ------- null}
r -t 1.88466666666667 -s 2 -d 3 -p cbr -e 1000 -c 2 -i 19 -a 2 -x {1.0 6.0 9 ------- null}
h -t 1.88466666666667 -s 3 -d 7 -p cbr -e 1000 -c 2 -i 19 -a 2 -x {1.0 6.0 9 ------- null}
+ -t 1.89203066666667 -s 4 -d 7 -p ack -e 40 -c 1 -i 22 -a 1 -x {4.0 0.0 5 ------- null}
- -t 1.89203066666667 -s 4 -d 7 -p ack -e 40 -c 1 -i 22 -a 1 -x {4.0 0.0 5 ------- null}
h -t 1.89203066666667 -s 4 -d 7 -p ack -e 40 -c 1 -i 22 -a 1 -x {4.0 0.0 -1 ------- null}
d -t 1.89203466666667 -s 6 -d 7 -p ack -e 40 -c 1 -i 22 -a 1 -x {4.0 0.0 5 ------- null}
d -t 1.89203466666667 -s 5 -d 7 -p ack -e 40 -c 1 -i 22 -a 1 -x {4.0 0.0 5 ------- null}
+ -t 1.9 -s 1 -d 2 -p cbr -e 1000 -c 2 -i 24 -a 2 -x {1.0 6.0 10 ------- null}
- -t 1.9 -s 1 -d 2 -p cbr -e 1000 -c 2 -i 24 -a 2 -x {1.0 6.0 10 ------- null}
h -t 1.9 -s 1 -d 2 -p cbr -e 1000 -c 2 -i 24 -a 2 -x {1.0 6.0 -1 ------- null}
r -t 1.90046133333333 -s 7 -d 3 -p ack -e 40 -c 1 -i 20 -a 1 -x {4.0 0.0 3 ------- null}
+ -t 1.90046133333333 -s 3 -d 2 -p ack -e 40 -c 1 -i 20 -a 1 -x {4.0 0.0 3 ------- null}
- -t 1.90046133333333 -s 3 -d 2 -p ack -e 40 -c 1 -i 20 -a 1 -x {4.0 0.0 3 ------- null}
h -t 1.90046133333333 -s 3 -d 2 -p ack -e 40 -c 1 -i 20 -a 1 -x {4.0 0.0 -1 ------- null}
+ -t 1.90781733333333 -s 4 -d 7 -p ack -e 40 -c 1 -i 23 -a 1 -x {4.0 0.0 6 ------- null}
- -t 1.90781733333333 -s 4 -d 7 -p ack -e 40 -c 1 -i 23 -a 1 -x {4.0 0.0 6 ------- null}
h -t 1.90781733333333 -s 4 -d 7 -p ack -e 40 -c 1 -i 23 -a 1 -x {4.0 0.0 -1 ------- null}
d -t 1.90782133333333 -s 6 -d 7 -p ack -e 40 -c 1 -i 23 -a 1 -x {4.0 0.0 6 ------- null}
d -t 1.90782133333333 -s 5 -d 7 -p ack -e 40 -c 1 -i 23 -a 1 -x {4.0 0.0 6 ------- null}
r -t 1.916248 -s 7 -d 3 -p ack -e 40 -c 1 -i 21 -a 1 -x {4.0 0.0 4 ------- null}
+ -t 1.916248 -s 3 -d 2 -p ack -e 40 -c 1 -i 21 -a 1 -x {4.0 0.0 4 ------- null}
- -t 1.916248 -s 3 -d 2 -p ack -e 40 -c 1 -i 21 -a 1 -x {4.0 0.0 4 ------- null}
h -t 1.916248 -s 3 -d 2 -p ack -e 40 -c 1 -i 21 -a 1 -x {4.0 0.0 -1 ------- null}
r -t 1.918 -s 1 -d 2 -p cbr -e 1000 -c 2 -i 24 -a 2 -x {1.0 6.0 10 ------- null}
+ -t 1.918 -s 2 -d 3 -p cbr -e 1000 -c 2 -i 24 -a 2 -x {1.0 6.0 10 ------- null}
- -t 1.918 -s 2 -d 3 -p cbr -e 1000 -c 2 -i 24 -a 2 -x {1.0 6.0 10 ------- null}
h -t 1.918 -s 2 -d 3 -p cbr -e 1000 -c 2 -i 24 -a 2 -x {1.0 6.0 -1 ------- null}
+ -t 1.92466666666667 -s 3 -d 7 -p cbr -e 1000 -c 2 -i 19 -a 2 -x {1.0 6.0 9 ------- null}
- -t 1.92466666666667 -s 3 -d 7 -p cbr -e 1000 -c 2 -i 19 -a 2 -x {1.0 6.0 9 ------- null}
h -t 1.92466666666667 -s 3 -d 7 -p cbr -e 1000 -c 2 -i 19 -a 2 -x {1.0 6.0 -1 ------- null}
d -t 1.92467066666667 -s 5 -d 7 -p cbr -e 1000 -c 2 -i 19 -a 2 -x {1.0 6.0 9 ------- null}