+ 0.3 1 2 cbr 1000 ------- 2 1.0 6.0 0 0
- 0.3 1 2 cbr 1000 ------- 2 1.0 6.0 0 0
r 0.318 1 2 cbr 1000 ------- 2 1.0 6.0 0 0
+ 0.318 2 3 cbr 1000 ------- 2 1.0 6.0 0 0
- 0.318 2 3 cbr 1000 ------- 2 1.0 6.0 0 0
r 0.444667 2 3 cbr 1000 ------- 2 1.0 6.0 0 0
h 0.444667 3 7 cbr 1000 ------- 2 1.0 6.0 0 0
+ 0.46 1 2 cbr 1000 ------- 2 1.0 6.0 1 1
- 0.46 1 2 cbr 1000 ------- 2 1.0 6.0 1 1
r 0.478 1 2 cbr 1000 ------- 2 1.0 6.0 1 1
+ 0.478 2 3 cbr 1000 ------- 2 1.0 6.0 1 1
- 0.478 2 3 cbr 1000 ------- 2 1.0 6.0 1 1
+ 0.484667 3 7 cbr 1000 ------- 2 1.0 6.0 0 0
- 0.484667 3 7 cbr 1000 ------- 2 1.0 6.0 0 0
d 0.484671 5 7 cbr 1000 ------- 2 1.0 6.0 0 0
d 0.484671 4 7 cbr 1000 ------- 2 1.0 6.0 0 0
r 0.524671 7 6 cbr 1000 ------- 2 1.0 6.0 0 0
r 0.604667 2 3 cbr 1000 ------- 2 1.0 6.0 1 1
h 0.604667 3 7 cbr 1000 ------- 2 1.0 6.0 1 1
+ 0.62 1 2 cbr 1000 ------- 2 1.0 6.0 2 2
- 0.62 1 2 cbr 1000 ------- 2 1.0 6.0 2 2
r 0.638 1 2 cbr 1000 ------- 2 1.0 6.0 2 2
+ 0.638 2 3 cbr 1000 ------- 2 1.0 6.0 2 2
- 0.638 2 3 cbr 1000 ------- 2 1.0 6.0 2 2
+ 0.644667 3 7 cbr 1000 ------- 2 1.0 6.0 1 1
- 0.644667 3 7 cbr 1000 ------- 2 1.0 6.0 1 1
d 0.644671 5 7 cbr 1000 ------- 2 1.0 6.0 1 1
d 0.644671 4 7 cbr 1000 ------- 2 1.0 6.0 1 1
r 0.684671 7 6 cbr 1000 ------- 2 1.0 6.0 1 1
r 0.764667 2 3 cbr 1000 ------- 2 1.0 6.0 2 2
h 0.764667 3 7 cbr 1000 ------- 2 1.0 6.0 2 2
+ 0.78 1 2 cbr 1000 ------- 2 1.0 6.0 3 3
- 0.78 1 2 cbr 1000 ------- 2 1.0 6.0 3 3
r 0.798 1 2 cbr 1000 ------- 2 1.0 6.0 3 3
+ 0.798 2 3 cbr 1000 ------- 2 1.0 6.0 3 3
- 0.798 2 3 cbr 1000 ------- 2 1.0 6.0 3 3
+ 0.8 0 2 tcp 40 ------- 1 0.0 4.0 0 4
- 0.8 0 2 tcp 40 ------- 1 0.0 4.0 0 4
+ 0.804667 3 7 cbr 1000 ------- 2 1.0 6.0 2 2
- 0.804667 3 7 cbr 1000 ------- 2 1.0 6.0 2 2
d 0.804671 5 7 cbr 1000 ------- 2 1.0 6.0 2 2
d 0.804671 4 7 cbr 1000 ------- 2 1.0 6.0 2 2
r 0.81032 0 2 tcp 40 ------- 1 0.0 4.0 0 4
+ 0.81032 2 3 tcp 40 ------- 1 0.0 4.0 0 4
- 0.824667 2 3 tcp 40 ------- 1 0.0 4.0 0 4
r 0.844671 7 6 cbr 1000 ------- 2 1.0 6.0 2 2
r 0.924667 2 3 cbr 1000 ------- 2 1.0 6.0 3 3
h 0.924667 3 7 cbr 1000 ------- 2 1.0 6.0 3 3
r 0.925733 2 3 tcp 40 ------- 1 0.0 4.0 0 4
h 0.925733 3 7 tcp 40 ------- 1 0.0 4.0 0 4
+ 0.94 1 2 cbr 1000 ------- 2 1.0 6.0 4 5
- 0.94 1 2 cbr 1000 ------- 2 1.0 6.0 4 5
r 0.958 1 2 cbr 1000 ------- 2 1.0 6.0 4 5
+ 0.958 2 3 cbr 1000 ------- 2 1.0 6.0 4 5
- 0.958 2 3 cbr 1000 ------- 2 1.0 6.0 4 5
+ 0.964667 3 7 cbr 1000 ------- 2 1.0 6.0 3 3
- 0.964667 3 7 cbr 1000 ------- 2 1.0 6.0 3 3
d 0.964671 5 7 cbr 1000 ------- 2 1.0 6.0 3 3
d 0.964671 4 7 cbr 1000 ------- 2 1.0 6.0 3 3
+ 0.965733 3 7 tcp 40 ------- 1 0.0 4.0 0 4
- 0.968923 3 7 tcp 40 ------- 1 0.0 4.0 0 4
d 0.968927 6 7 tcp 40 ------- 1 0.0 4.0 0 4
d 0.968927 5 7 tcp 40 ------- 1 0.0 4.0 0 4
r 1.004671 7 6 cbr 1000 ------- 2 1.0 6.0 3 3
r 1.008927 7 4 tcp 40 ------- 1 0.0 4.0 0 4
h 1.008927 4 7 ack 40 ------- 1 4.0 0.0 0 6
+ 1.048927 4 7 ack 40 ------- 1 4.0 0.0 0 6
- 1.048927 4 7 ack 40 ------- 1 4.0 0.0 0 6
d 1.048931 6 7 ack 40 ------- 1 4.0 0.0 0 6
d 1.048931 5 7 ack 40 ------- 1 4.0 0.0 0 6
r 1.084667 2 3 cbr 1000 ------- 2 1.0 6.0 4 5
h 1.084667 3 7 cbr 1000 ------- 2 1.0 6.0 4 5
r 1.088931 7 3 ack 40 ------- 1 4.0 0.0 0 6
+ 1.088931 3 2 ack 40 ------- 1 4.0 0.0 0 6
- 1.088931 3 2 ack 40 ------- 1 4.0 0.0 0 6
+ 1.1 1 2 cbr 1000 ------- 2 1.0 6.0 5 7
- 1.1 1 2 cbr 1000 ------- 2 1.0 6.0 5 7
r 1.118 1 2 cbr 1000 ------- 2 1.0 6.0 5 7
+ 1.118 2 3 cbr 1000 ------- 2 1.0 6.0 5 7
- 1.118 2 3 cbr 1000 ------- 2 1.0 6.0 5 7
+ 1.124667 3 7 cbr 1000 ------- 2 1.0 6.0 4 5
- 1.124667 3 7 cbr 1000 ------- 2 1.0 6.0 4 5
d 1.124671 5 7 cbr 1000 ------- 2 1.0 6.0 4 5
d 1.124671 4 7 cbr 1000 ------- 2 1.0 6.0 4 5
r 1.164671 7 6 cbr 1000 ------- 2 1.0 6.0 4 5
r 1.189997 3 2 ack 40 ------- 1 4.0 0.0 0 6
+ 1.189997 2 0 ack 40 ------- 1 4.0 0.0 0 6
- 1.189997 2 0 ack 40 ------- 1 4.0 0.0 0 6
r 1.200317 2 0 ack 40 ------- 1 4.0 0.0 0 6
+ 1.200317 0 2 tcp 592 ------- 1 0.0 4.0 1 8
- 1.200317 0 2 tcp 592 ------- 1 0.0 4.0 1 8
+ 1.200317 0 2 tcp 592 ------- 1 0.0 4.0 2 9
- 1.205053 0 2 tcp 592 ------- 1 0.0 4.0 2 9
r 1.215053 0 2 tcp 592 ------- 1 0.0 4.0 1 8
+ 1.215053 2 3 tcp 592 ------- 1 0.0 4.0 1 8
- 1.215053 2 3 tcp 592 ------- 1 0.0 4.0 1 8
r 1.219789 0 2 tcp 592 ------- 1 0.0 4.0 2 9
+ 1.219789 2 3 tcp 592 ------- 1 0.0 4.0 2 9
- 1.23084 2 3 tcp 592 ------- 1 0.0 4.0 2 9
r 1.244667 2 3 cbr 1000 ------- 2 1.0 6.0 5 7
h 1.244667 3 7 cbr 1000 ------- 2 1.0 6.0 5 7
+ 1.26 1 2 cbr 1000 ------- 2 1.0 6.0 6 10
- 1.26 1 2 cbr 1000 ------- 2 1.0 6.0 6 10
r 1.278 1 2 cbr 1000 ------- 2 1.0 6.0 6 10
+ 1.278 2 3 cbr 1000 ------- 2 1.0 6.0 6 10
- 1.278 2 3 cbr 1000 ------- 2 1.0 6.0 6 10
+ 1.284667 3 7 cbr 1000 ------- 2 1.0 6.0 5 7
- 1.284667 3 7 cbr 1000 ------- 2 1.0 6.0 5 7
d 1.284671 5 7 cbr 1000 ------- 2 1.0 6.0 5 7
d 1.284671 4 7 cbr 1000 ------- 2 1.0 6.0 5 7
r 1.324671 7 6 cbr 1000 ------- 2 1.0 6.0 5 7
r 1.33084 2 3 tcp 592 ------- 1 0.0 4.0 1 8
h 1.33084 3 7 tcp 592 ------- 1 0.0 4.0 1 8
r 1.346627 2 3 tcp 592 ------- 1 0.0 4.0 2 9
h 1.346627 3 7 tcp 592 ------- 1 0.0 4.0 2 9
+ 1.37084 3 7 tcp 592 ------- 1 0.0 4.0 1 8
- 1.37084 3 7 tcp 592 ------- 1 0.0 4.0 1 8
d 1.370844 6 7 tcp 592 ------- 1 0.0 4.0 1 8
d 1.370844 5 7 tcp 592 ------- 1 0.0 4.0 1 8
+ 1.386627 3 7 tcp 592 ------- 1 0.0 4.0 2 9
- 1.386627 3 7 tcp 592 ------- 1 0.0 4.0 2 9
d 1.386631 6 7 tcp 592 ------- 1 0.0 4.0 2 9
d 1.386631 5 7 tcp 592 ------- 1 0.0 4.0 2 9
r 1.404667 2 3 cbr 1000 ------- 2 1.0 6.0 6 10
h 1.404667 3 7 cbr 1000 ------- 2 1.0 6.0 6 10
r 1.410844 7 4 tcp 592 ------- 1 0.0 4.0 1 8
h 1.410844 4 7 ack 40 ------- 1 4.0 0.0 1 11
+ 1.42 1 2 cbr 1000 ------- 2 1.0 6.0 7 12
- 1.42 1 2 cbr 1000 ------- 2 1.0 6.0 7 12
r 1.426631 7 4 tcp 592 ------- 1 0.0 4.0 2 9
h 1.426631 4 7 ack 40 ------- 1 4.0 0.0 2 13
r 1.438 1 2 cbr 1000 ------- 2 1.0 6.0 7 12
+ 1.438 2 3 cbr 1000 ------- 2 1.0 6.0 7 12
- 1.438 2 3 cbr 1000 ------- 2 1.0 6.0 7 12
+ 1.444667 3 7 cbr 1000 ------- 2 1.0 6.0 6 10
- 1.444667 3 7 cbr 1000 ------- 2 1.0 6.0 6 10
d 1.444671 5 7 cbr 1000 ------- 2 1.0 6.0 6 10
d 1.444671 4 7 cbr 1000 ------- 2 1.0 6.0 6 10
+ 1.450844 4 7 ack 40 ------- 1 4.0 0.0 1 11
- 1.450844 4 7 ack 40 ------- 1 4.0 0.0 1 11
d 1.450848 6 7 ack 40 ------- 1 4.0 0.0 1 11
d 1.450848 5 7 ack 40 ------- 1 4.0 0.0 1 11
+ 1.466631 4 7 ack 40 ------- 1 4.0 0.0 2 13
- 1.466631 4 7 ack 40 ------- 1 4.0 0.0 2 13
d 1.466635 6 7 ack 40 ------- 1 4.0 0.0 2 13
d 1.466635 5 7 ack 40 ------- 1 4.0 0.0 2 13
r 1.484671 7 6 cbr 1000 ------- 2 1.0 6.0 6 10
r 1.490848 7 3 ack 40 ------- 1 4.0 0.0 1 11
+ 1.490848 3 2 ack 40 ------- 1 4.0 0.0 1 11
- 1.490848 3 2 ack 40 ------- 1 4.0 0.0 1 11
r 1.506635 7 3 ack 40 ------- 1 4.0 0.0 2 13
+ 1.506635 3 2 ack 40 ------- 1 4.0 0.0 2 13
- 1.506635 3 2 ack 40 ------- 1 4.0 0.0 2 13
r 1.564667 2 3 cbr 1000 ------- 2 1.0 6.0 7 12
h 1.564667 3 7 cbr 1000 ------- 2 1.0 6.0 7 12
+ 1.58 1 2 cbr 1000 ------- 2 1.0 6.0 8 14
- 1.58 1 2 cbr 1000 ------- 2 1.0 6.0 8 14
r 1.591915 3 2 ack 40 ------- 1 4.0 0.0 1 11
+ 1.591915 2 0 ack 40 ------- 1 4.0 0.0 1 11
- 1.591915 2 0 ack 40 ------- 1 4.0 0.0 1 11
r 1.598 1 2 cbr 1000 ------- 2 1.0 6.0 8 14
+ 1.598 2 3 cbr 1000 ------- 2 1.0 6.0 8 14
- 1.598 2 3 cbr 1000 ------- 2 1.0 6.0 8 14
r 1.602235 2 0 ack 40 ------- 1 4.0 0.0 1 11
+ 1.602235 0 2 tcp 592 ------- 1 0.0 4.0 3 15
- 1.602235 0 2 tcp 592 ------- 1 0.0 4.0 3 15
+ 1.602235 0 2 tcp 592 ------- 1 0.0 4.0 4 16
+ 1.604667 3 7 cbr 1000 ------- 2 1.0 6.0 7 12
- 1.604667 3 7 cbr 1000 ------- 2 1.0 6.0 7 12
d 1.604671 5 7 cbr 1000 ------- 2 1.0 6.0 7 12
d 1.604671 4 7 cbr 1000 ------- 2 1.0 6.0 7 12
- 1.606971 0 2 tcp 592 ------- 1 0.0 4.0 4 16
r 1.607701 3 2 ack 40 ------- 1 4.0 0.0 2 13
+ 1.607701 2 0 ack 40 ------- 1 4.0 0.0 2 13
- 1.607701 2 0 ack 40 ------- 1 4.0 0.0 2 13
r 1.616971 0 2 tcp 592 ------- 1 0.0 4.0 3 15
+ 1.616971 2 3 tcp 592 ------- 1 0.0 4.0 3 15
r 1.618021 2 0 ack 40 ------- 1 4.0 0.0 2 13
+ 1.618021 0 2 tcp 592 ------- 1 0.0 4.0 5 17
- 1.618021 0 2 tcp 592 ------- 1 0.0 4.0 5 17
+ 1.618021 0 2 tcp 592 ------- 1 0.0 4.0 6 18
r 1.621707 0 2 tcp 592 ------- 1 0.0 4.0 4 16
+ 1.621707 2 3 tcp 592 ------- 1 0.0 4.0 4 16
- 1.622757 0 2 tcp 592 ------- 1 0.0 4.0 6 18
- 1.624667 2 3 tcp 592 ------- 1 0.0 4.0 3 15
r 1.632757 0 2 tcp 592 ------- 1 0.0 4.0 5 17
+ 1.632757 2 3 tcp 592 ------- 1 0.0 4.0 5 17
r 1.637493 0 2 tcp 592 ------- 1 0.0 4.0 6 18
+ 1.637493 2 3 tcp 592 ------- 1 0.0 4.0 6 18
- 1.640453 2 3 tcp 592 ------- 1 0.0 4.0 4 16
r 1.644671 7 6 cbr 1000 ------- 2 1.0 6.0 7 12
- 1.65624 2 3 tcp 592 ------- 1 0.0 4.0 5 17
- 1.672027 2 3 tcp 592 ------- 1 0.0 4.0 6 18
r 1.724667 2 3 cbr 1000 ------- 2 1.0 6.0 8 14
h 1.724667 3 7 cbr 1000 ------- 2 1.0 6.0 8 14
+ 1.74 1 2 cbr 1000 ------- 2 1.0 6.0 9 19
- 1.74 1 2 cbr 1000 ------- 2 1.0 6.0 9 19
r 1.740453 2 3 tcp 592 ------- 1 0.0 4.0 3 15
h 1.740453 3 7 tcp 592 ------- 1 0.0 4.0 3 15
r 1.75624 2 3 tcp 592 ------- 1 0.0 4.0 4 16
h 1.75624 3 7 tcp 592 ------- 1 0.0 4.0 4 16
r 1.758 1 2 cbr 1000 ------- 2 1.0 6.0 9 19
+ 1.758 2 3 cbr 1000 ------- 2 1.0 6.0 9 19
- 1.758 2 3 cbr 1000 ------- 2 1.0 6.0 9 19
+ 1.764667 3 7 cbr 1000 ------- 2 1.0 6.0 8 14
- 1.764667 3 7 cbr 1000 ------- 2 1.0 6.0 8 14
d 1.764671 5 7 cbr 1000 ------- 2 1.0 6.0 8 14
d 1.764671 4 7 cbr 1000 ------- 2 1.0 6.0 8 14
r 1.772027 2 3 tcp 592 ------- 1 0.0 4.0 5 17
h 1.772027 3 7 tcp 592 ------- 1 0.0 4.0 5 17
+ 1.780453 3 7 tcp 592 ------- 1 0.0 4.0 3 15
- 1.780453 3 7 tcp 592 ------- 1 0.0 4.0 3 15
d 1.780457 6 7 tcp 592 ------- 1 0.0 4.0 3 15
d 1.780457 5 7 tcp 592 ------- 1 0.0 4.0 3 15
r 1.787813 2 3 tcp 592 ------- 1 0.0 4.0 6 18
h 1.787813 3 7 tcp 592 ------- 1 0.0 4.0 6 18
+ 1.79624 3 7 tcp 592 ------- 1 0.0 4.0 4 16
- 1.79624 3 7 tcp 592 ------- 1 0.0 4.0 4 16
d 1.796244 6 7 tcp 592 ------- 1 0.0 4.0 4 16
d 1.796244 5 7 tcp 592 ------- 1 0.0 4.0 4 16
r 1.804671 7 6 cbr 1000 ------- 2 1.0 6.0 8 14
+ 1.812027 3 7 tcp 592 ------- 1 0.0 4.0 5 17
- 1.812027 3 7 tcp 592 ------- 1 0.0 4.0 5 17
d 1.812031 6 7 tcp 592 ------- 1 0.0 4.0 5 17
d 1.812031 5 7 tcp 592 ------- 1 0.0 4.0 5 17
r 1.820457 7 4 tcp 592 ------- 1 0.0 4.0 3 15
h 1.820457 4 7 ack 40 ------- 1 4.0 0.0 3 20
+ 1.827813 3 7 tcp 592 ------- 1 0.0 4.0 6 18
- 1.827813 3 7 tcp 592 ------- 1 0.0 4.0 6 18
d 1.827817 6 7 tcp 592 ------- 1 0.0 4.0 6 18
d 1.827817 5 7 tcp 592 ------- 1 0.0 4.0 6 18
r 1.836244 7 4 tcp 592 ------- 1 0.0 4.0 4 16
h 1.836244 4 7 ack 40 ------- 1 4.0 0.0 4 21
r 1.852031 7 4 tcp 592 ------- 1 0.0 4.0 5 17
h 1.852031 4 7 ack 40 ------- 1 4.0 0.0 5 22
+ 1.860457 4 7 ack 40 ------- 1 4.0 0.0 3 20
- 1.860457 4 7 ack 40 ------- 1 4.0 0.0 3 20
d 1.860461 6 7 ack 40 ------- 1 4.0 0.0 3 20
d 1.860461 5 7 ack 40 ------- 1 4.0 0.0 3 20
r 1.867817 7 4 tcp 592 ------- 1 0.0 4.0 6 18
h 1.867817 4 7 ack 40 ------- 1 4.0 0.0 6 23
+ 1.876244 4 7 ack 40 ------- 1 4.0 0.0 4 21
- 1.876244 4 7 ack 40 ------- 1 4.0 0.0 4 21
d 1.876248 6 7 ack 40 ------- 1 4.0 0.0 4 21
d 1.876248 5 7 ack 40 ------- 1 4.0 0.0 4 21
r 1.884667 2 3 cbr 1000 ------- 2 1.0 6.0 9 19
h 1.884667 3 7 cbr 1000 ------- 2 1.0 6.0 9 19
+ 1.892031 4 7 ack 40 ------- 1 4.0 0.0 5 22
- 1.892031 4 7 ack 40 ------- 1 4.0 0.0 5 22
d 1.892035 6 7 ack 40 ------- 1 4.0 0.0 5 22
d 1.892035 5 7 ack 40 ------- 1 4.0 0.0 5 22
+ 1.9 1 2 cbr 1000 ------- 2 1.0 6.0 10 24
- 1.9 1 2 cbr 1000 ------- 2 1.0 6.0 10 24
r 1.900461 7 3 ack 40 ------- 1 4.0 0.0 3 20
+ 1.900461 3 2 ack 40 ------- 1 4.0 0.0 3 20
- 1.900461 3 2 ack 40 ------- 1 4.0 0.0 3 20
+ 1.907817 4 7 ack 40 ------- 1 4.0 0.0 6 23
- 1.907817 4 7 ack 40 ------- 1 4.0 0.0 6 23
d 1.907821 6 7 ack 40 ------- 1 4.0 0.0 6 23
d 1.907821 5 7 ack 40 ------- 1 4.0 0.0 6 23
r 1.916248 7 3 ack 40 ------- 1 4.0 0.0 4 21
+ 1.916248 3 2 ack 40 ------- 1 4.0 0.0 4 21
- 1.916248 3 2 ack 40 ------- 1 4.0 0.0 4 21
r 1.918 1 2 cbr 1000 ------- 2 1.0 6.0 10 24
+ 1.918 2 3 cbr 1000 ------- 2 1.0 6.0 10 24
- 1.918 2 3 cbr 1000 ------- 2 1.0 6.0 10 24
+ 1.924667 3 7 cbr 1000 ------- 2 1.0 6.0 9 19
- 1.924667 3 7 cbr 1000 ------- 2 1.0 6.0 9 19
d 1.924671 5 7 cbr 1000 ------- 2 1.0 6.0 9 19
d 1.924671 4 7 cbr 1000 ------- 2 1.0 6.0 9 19
r 1.932035 7 3 ack 40 ------- 1 4.0 0.0 5 22
+ 1.932035 3 2 ack 40 ------- 1 4.0 0.0 5 22
- 1.932035 3 2 ack 40 ------- 1 4.0 0.0 5 22
r 1.947821 7 3 ack 40 ------- 1 4.0 0.0 6 23
+ 1.947821 3 2 ack 40 ------- 1 4.0 0.0 6 23
- 1.947821 3 2 ack 40 ------- 1 4.0 0.0 6 23
r 1.964671 7 6 cbr 1000 ------- 2 1.0 6.0 9 19
r 2.001528 3 2 ack 40 ------- 1 4.0 0.0 3 20
+ 2.001528 2 0 ack 40 ------- 1 4.0 0.0 3 20
- 2.001528 2 0 ack 40 ------- 1 4.0 0.0 3 20
r 2.011848 2 0 ack 40 ------- 1 4.0 0.0 3 20
+ 2.011848 0 2 tcp 592 ------- 1 0.0 4.0 7 25
- 2.011848 0 2 tcp 592 ------- 1 0.0 4.0 7 25
+ 2.011848 0 2 tcp 592 ------- 1 0.0 4.0 8 26
- 2.016584 0 2 tcp 592 ------- 1 0.0 4.0 8 26
r 2.017315 3 2 ack 40 ------- 1 4.0 0.0 4 21
+ 2.017315 2 0 ack 40 ------- 1 4.0 0.0 4 21
- 2.017315 2 0 ack 40 ------- 1 4.0 0.0 4 21
r 2.026584 0 2 tcp 592 ------- 1 0.0 4.0 7 25
+ 2.026584 2 3 tcp 592 ------- 1 0.0 4.0 7 25
- 2.026584 2 3 tcp 592 ------- 1 0.0 4.0 7 25
r 2.027635 2 0 ack 40 ------- 1 4.0 0.0 4 21
+ 2.027635 0 2 tcp 592 ------- 1 0.0 4.0 9 27
- 2.027635 0 2 tcp 592 ------- 1 0.0 4.0 9 27
+ 2.027635 0 2 tcp 592 ------- 1 0.0 4.0 10 28
r 2.03132 0 2 tcp 592 ------- 1 0.0 4.0 8 26
+ 2.03132 2 3 tcp 592 ------- 1 0.0 4.0 8 26
- 2.032371 0 2 tcp 592 ------- 1 0.0 4.0 10 28
r 2.033101 3 2 ack 40 ------- 1 4.0 0.0 5 22
+ 2.033101 2 0 ack 40 ------- 1 4.0 0.0 5 22
- 2.033101 2 0 ack 40 ------- 1 4.0 0.0 5 22
- 2.042371 2 3 tcp 592 ------- 1 0.0 4.0 8 26
r 2.042371 0 2 tcp 592 ------- 1 0.0 4.0 9 27
+ 2.042371 2 3 tcp 592 ------- 1 0.0 4.0 9 27
r 2.043421 2 0 ack 40 ------- 1 4.0 0.0 5 22
+ 2.043421 0 2 tcp 592 ------- 1 0.0 4.0 11 29
- 2.043421 0 2 tcp 592 ------- 1 0.0 4.0 11 29
+ 2.043421 0 2 tcp 592 ------- 1 0.0 4.0 12 30
r 2.044667 2 3 cbr 1000 ------- 2 1.0 6.0 10 24
h 2.044667 3 7 cbr 1000 ------- 2 1.0 6.0 10 24
r 2.047107 0 2 tcp 592 ------- 1 0.0 4.0 10 28
+ 2.047107 2 3 tcp 592 ------- 1 0.0 4.0 10 28
- 2.048157 0 2 tcp 592 ------- 1 0.0 4.0 12 30
r 2.048888 3 2 ack 40 ------- 1 4.0 0.0 6 23
+ 2.048888 2 0 ack 40 ------- 1 4.0 0.0 6 23
- 2.048888 2 0 ack 40 ------- 1 4.0 0.0 6 23
- 2.058157 2 3 tcp 592 ------- 1 0.0 4.0 9 27
r 2.058157 0 2 tcp 592 ------- 1 0.0 4.0 11 29
+ 2.058157 2 3 tcp 592 ------- 1 0.0 4.0 11 29
r 2.059208 2 0 ack 40 ------- 1 4.0 0.0 6 23
+ 2.059208 0 2 tcp 592 ------- 1 0.0 4.0 13 31
- 2.059208 0 2 tcp 592 ------- 1 0.0 4.0 13 31
+ 2.059208 0 2 tcp 592 ------- 1 0.0 4.0 14 32
+ 2.06 1 2 cbr 1000 ------- 2 1.0 6.0 11 33
- 2.06 1 2 cbr 1000 ------- 2 1.0 6.0 11 33
r 2.062893 0 2 tcp 592 ------- 1 0.0 4.0 12 30
+ 2.062893 2 3 tcp 592 ------- 1 0.0 4.0 12 30
- 2.063944 0 2 tcp 592 ------- 1 0.0 4.0 14 32
- 2.073944 2 3 tcp 592 ------- 1 0.0 4.0 10 28
r 2.073944 0 2 tcp 592 ------- 1 0.0 4.0 13 31
+ 2.073944 2 3 tcp 592 ------- 1 0.0 4.0 13 31
r 2.078 1 2 cbr 1000 ------- 2 1.0 6.0 11 33
+ 2.078 2 3 cbr 1000 ------- 2 1.0 6.0 11 33
r 2.07868 0 2 tcp 592 ------- 1 0.0 4.0 14 32
+ 2.07868 2 3 tcp 592 ------- 1 0.0 4.0 14 32
+ 2.084667 3 7 cbr 1000 ------- 2 1.0 6.0 10 24
- 2.084667 3 7 cbr 1000 ------- 2 1.0 6.0 10 24
d 2.084671 5 7 cbr 1000 ------- 2 1.0 6.0 10 24
d 2.084671 4 7 cbr 1000 ------- 2 1.0 6.0 10 24
- 2.089731 2 3 tcp 592 ------- 1 0.0 4.0 11 29
- 2.105517 2 3 tcp 592 ------- 1 0.0 4.0 12 30
- 2.121304 2 3 tcp 592 ------- 1 0.0 4.0 13 31
r 2.124671 7 6 cbr 1000 ------- 2 1.0 6.0 10 24
- 2.137091 2 3 cbr 1000 ------- 2 1.0 6.0 11 33
r 2.142371 2 3 tcp 592 ------- 1 0.0 4.0 7 25
h 2.142371 3 7 tcp 592 ------- 1 0.0 4.0 7 25
r 2.158157 2 3 tcp 592 ------- 1 0.0 4.0 8 26
h 2.158157 3 7 tcp 592 ------- 1 0.0 4.0 8 26
- 2.163757 2 3 tcp 592 ------- 1 0.0 4.0 14 32
r 2.173944 2 3 tcp 592 ------- 1 0.0 4.0 9 27
h 2.173944 3 7 tcp 592 ------- 1 0.0 4.0 9 27
+ 2.182371 3 7 tcp 592 ------- 1 0.0 4.0 7 25
- 2.182371 3 7 tcp 592 ------- 1 0.0 4.0 7 25
d 2.182375 6 7 tcp 592 ------- 1 0.0 4.0 7 25
d 2.182375 5 7 tcp 592 ------- 1 0.0 4.0 7 25
r 2.189731 2 3 tcp 592 ------- 1 0.0 4.0 10 28
h 2.189731 3 7 tcp 592 ------- 1 0.0 4.0 10 28
+ 2.198157 3 7 tcp 592 ------- 1 0.0 4.0 8 26
- 2.198157 3 7 tcp 592 ------- 1 0.0 4.0 8 26
d 2.198161 6 7 tcp 592 ------- 1 0.0 4.0 8 26
d 2.198161 5 7 tcp 592 ------- 1 0.0 4.0 8 26
r 2.205517 2 3 tcp 592 ------- 1 0.0 4.0 11 29
h 2.205517 3 7 tcp 592 ------- 1 0.0 4.0 11 29
+ 2.213944 3 7 tcp 592 ------- 1 0.0 4.0 9 27
- 2.213944 3 7 tcp 592 ------- 1 0.0 4.0 9 27
d 2.213948 6 7 tcp 592 ------- 1 0.0 4.0 9 27
d 2.213948 5 7 tcp 592 ------- 1 0.0 4.0 9 27
+ 2.22 1 2 cbr 1000 ------- 2 1.0 6.0 12 34
- 2.22 1 2 cbr 1000 ------- 2 1.0 6.0 12 34
r 2.221304 2 3 tcp 592 ------- 1 0.0 4.0 12 30
h 2.221304 3 7 tcp 592 ------- 1 0.0 4.0 12 30
r 2.222375 7 4 tcp 592 ------- 1 0.0 4.0 7 25
h 2.222375 4 7 ack 40 ------- 1 4.0 0.0 7 35
+ 2.229731 3 7 tcp 592 ------- 1 0.0 4.0 10 28
- 2.229731 3 7 tcp 592 ------- 1 0.0 4.0 10 28
d 2.229735 6 7 tcp 592 ------- 1 0.0 4.0 10 28
d 2.229735 5 7 tcp 592 ------- 1 0.0 4.0 10 28
r 2.237091 2 3 tcp 592 ------- 1 0.0 4.0 13 31
h 2.237091 3 7 tcp 592 ------- 1 0.0 4.0 13 31
r 2.238 1 2 cbr 1000 ------- 2 1.0 6.0 12 34
+ 2.238 2 3 cbr 1000 ------- 2 1.0 6.0 12 34
- 2.238 2 3 cbr 1000 ------- 2 1.0 6.0 12 34
r 2.238161 7 4 tcp 592 ------- 1 0.0 4.0 8 26
h 2.238161 4 7 ack 40 ------- 1 4.0 0.0 8 36
+ 2.245517 3 7 tcp 592 ------- 1 0.0 4.0 11 29
- 2.245517 3 7 tcp 592 ------- 1 0.0 4.0 11 29
d 2.245521 6 7 tcp 592 ------- 1 0.0 4.0 11 29
d 2.245521 5 7 tcp 592 ------- 1 0.0 4.0 11 29
r 2.253948 7 4 tcp 592 ------- 1 0.0 4.0 9 27
h 2.253948 4 7 ack 40 ------- 1 4.0 0.0 9 37
+ 2.261304 3 7 tcp 592 ------- 1 0.0 4.0 12 30
- 2.261304 3 7 tcp 592 ------- 1 0.0 4.0 12 30
d 2.261308 6 7 tcp 592 ------- 1 0.0 4.0 12 30
d 2.261308 5 7 tcp 592 ------- 1 0.0 4.0 12 30
+ 2.262375 4 7 ack 40 ------- 1 4.0 0.0 7 35
- 2.262375 4 7 ack 40 ------- 1 4.0 0.0 7 35
d 2.262379 6 7 ack 40 ------- 1 4.0 0.0 7 35
d 2.262379 5 7 ack 40 ------- 1 4.0 0.0 7 35
r 2.263757 2 3 cbr 1000 ------- 2 1.0 6.0 11 33
h 2.263757 3 7 cbr 1000 ------- 2 1.0 6.0 11 33
r 2.269735 7 4 tcp 592 ------- 1 0.0 4.0 10 28
h 2.269735 4 7 ack 40 ------- 1 4.0 0.0 10 38
+ 2.277091 3 7 tcp 592 ------- 1 0.0 4.0 13 31
- 2.277091 3 7 tcp 592 ------- 1 0.0 4.0 13 31
d 2.277095 6 7 tcp 592 ------- 1 0.0 4.0 13 31
d 2.277095 5 7 tcp 592 ------- 1 0.0 4.0 13 31
+ 2.278161 4 7 ack 40 ------- 1 4.0 0.0 8 36
- 2.278161 4 7 ack 40 ------- 1 4.0 0.0 8 36
d 2.278165 6 7 ack 40 ------- 1 4.0 0.0 8 36
d 2.278165 5 7 ack 40 ------- 1 4.0 0.0 8 36
r 2.279544 2 3 tcp 592 ------- 1 0.0 4.0 14 32
h 2.279544 3 7 tcp 592 ------- 1 0.0 4.0 14 32
r 2.285521 7 4 tcp 592 ------- 1 0.0 4.0 11 29
h 2.285521 4 7 ack 40 ------- 1 4.0 0.0 11 39
+ 2.293948 4 7 ack 40 ------- 1 4.0 0.0 9 37
- 2.293948 4 7 ack 40 ------- 1 4.0 0.0 9 37
d 2.293952 6 7 ack 40 ------- 1 4.0 0.0 9 37
d 2.293952 5 7 ack 40 ------- 1 4.0 0.0 9 37
r 2.301308 7 4 tcp 592 ------- 1 0.0 4.0 12 30
h 2.301308 4 7 ack 40 ------- 1 4.0 0.0 12 40
r 2.302379 7 3 ack 40 ------- 1 4.0 0.0 7 35
+ 2.302379 3 2 ack 40 ------- 1 4.0 0.0 7 35
- 2.302379 3 2 ack 40 ------- 1 4.0 0.0 7 35
+ 2.303757 3 7 cbr 1000 ------- 2 1.0 6.0 11 33
- 2.303757 3 7 cbr 1000 ------- 2 1.0 6.0 11 33
d 2.303761 5 7 cbr 1000 ------- 2 1.0 6.0 11 33
d 2.303761 4 7 cbr 1000 ------- 2 1.0 6.0 11 33
+ 2.309735 4 7 ack 40 ------- 1 4.0 0.0 10 38
- 2.309735 4 7 ack 40 ------- 1 4.0 0.0 10 38
d 2.309739 6 7 ack 40 ------- 1 4.0 0.0 10 38
d 2.309739 5 7 ack 40 ------- 1 4.0 0.0 10 38
r 2.317095 7 4 tcp 592 ------- 1 0.0 4.0 13 31
h 2.317095 4 7 ack 40 ------- 1 4.0 0.0 13 41
r 2.318165 7 3 ack 40 ------- 1 4.0 0.0 8 36
+ 2.318165 3 2 ack 40 ------- 1 4.0 0.0 8 36
- 2.318165 3 2 ack 40 ------- 1 4.0 0.0 8 36
+ 2.319544 3 7 tcp 592 ------- 1 0.0 4.0 14 32
- 2.319544 3 7 tcp 592 ------- 1 0.0 4.0 14 32
d 2.319548 6 7 tcp 592 ------- 1 0.0 4.0 14 32
d 2.319548 5 7 tcp 592 ------- 1 0.0 4.0 14 32
+ 2.325521 4 7 ack 40 ------- 1 4.0 0.0 11 39
- 2.325521 4 7 ack 40 ------- 1 4.0 0.0 11 39
d 2.325525 6 7 ack 40 ------- 1 4.0 0.0 11 39
d 2.325525 5 7 ack 40 ------- 1 4.0 0.0 11 39
r 2.333952 7 3 ack 40 ------- 1 4.0 0.0 9 37
+ 2.333952 3 2 ack 40 ------- 1 4.0 0.0 9 37
- 2.333952 3 2 ack 40 ------- 1 4.0 0.0 9 37
+ 2.341308 4 7 ack 40 ------- 1 4.0 0.0 12 40
- 2.341308 4 7 ack 40 ------- 1 4.0 0.0 12 40
d 2.341312 6 7 ack 40 ------- 1 4.0 0.0 12 40
d 2.341312 5 7 ack 40 ------- 1 4.0 0.0 12 40
r 2.343761 7 6 cbr 1000 ------- 2 1.0 6.0 11 33
r 2.349739 7 3 ack 40 ------- 1 4.0 0.0 10 38
+ 2.349739 3 2 ack 40 ------- 1 4.0 0.0 10 38
- 2.349739 3 2 ack 40 ------- 1 4.0 0.0 10 38
+ 2.357095 4 7 ack 40 ------- 1 4.0 0.0 13 41
- 2.357095 4 7 ack 40 ------- 1 4.0 0.0 13 41
d 2.357099 6 7 ack 40 ------- 1 4.0 0.0 13 41
d 2.357099 5 7 ack 40 ------- 1 4.0 0.0 13 41
r 2.359548 7 4 tcp 592 ------- 1 0.0 4.0 14 32
h 2.359548 4 7 ack 40 ------- 1 4.0 0.0 14 42
r 2.364667 2 3 cbr 1000 ------- 2 1.0 6.0 12 34
h 2.364667 3 7 cbr 1000 ------- 2 1.0 6.0 12 34
r 2.365525 7 3 ack 40 ------- 1 4.0 0.0 11 39
+ 2.365525 3 2 ack 40 ------- 1 4.0 0.0 11 39
- 2.365525 3 2 ack 40 ------- 1 4.0 0.0 11 39
+ 2.38 1 2 cbr 1000 ------- 2 1.0 6.0 13 43
- 2.38 1 2 cbr 1000 ------- 2 1.0 6.0 13 43
r 2.381312 7 3 ack 40 ------- 1 4.0 0.0 12 40
+ 2.381312 3 2 ack 40 ------- 1 4.0 0.0 12 40
- 2.381312 3 2 ack 40 ------- 1 4.0 0.0 12 40
r 2.397099 7 3 ack 40 ------- 1 4.0 0.0 13 41
+ 2.397099 3 2 ack 40 ------- 1 4.0 0.0 13 41
- 2.397099 3 2 ack 40 ------- 1 4.0 0.0 13 41
r 2.398 1 2 cbr 1000 ------- 2 1.0 6.0 13 43
+ 2.398 2 3 cbr 1000 ------- 2 1.0 6.0 13 43
- 2.398 2 3 cbr 1000 ------- 2 1.0 6.0 13 43
+ 2.399548 4 7 ack 40 ------- 1 4.0 0.0 14 42
- 2.399548 4 7 ack 40 ------- 1 4.0 0.0 14 42
d 2.399552 6 7 ack 40 ------- 1 4.0 0.0 14 42
d 2.399552 5 7 ack 40 ------- 1 4.0 0.0 14 42
r 2.403445 3 2 ack 40 ------- 1 4.0 0.0 7 35
+ 2.403445 2 0 ack 40 ------- 1 4.0 0.0 7 35
- 2.403445 2 0 ack 40 ------- 1 4.0 0.0 7 35
+ 2.404667 3 7 cbr 1000 ------- 2 1.0 6.0 12 34
- 2.404667 3 7 cbr 1000 ------- 2 1.0 6.0 12 34
d 2.404671 5 7 cbr 1000 ------- 2 1.0 6.0 12 34
d 2.404671 4 7 cbr 1000 ------- 2 1.0 6.0 12 34
r 2.413765 2 0 ack 40 ------- 1 4.0 0.0 7 35
+ 2.413765 0 2 tcp 592 ------- 1 0.0 4.0 15 44
- 2.413765 0 2 tcp 592 ------- 1 0.0 4.0 15 44
+ 2.413765 0 2 tcp 592 ------- 1 0.0 4.0 16 45
- 2.418501 0 2 tcp 592 ------- 1 0.0 4.0 16 45
r 2.419232 3 2 ack 40 ------- 1 4.0 0.0 8 36
+ 2.419232 2 0 ack 40 ------- 1 4.0 0.0 8 36
- 2.419232 2 0 ack 40 ------- 1 4.0 0.0 8 36
r 2.428501 0 2 tcp 592 ------- 1 0.0 4.0 15 44
+ 2.428501 2 3 tcp 592 ------- 1 0.0 4.0 15 44
- 2.428501 2 3 tcp 592 ------- 1 0.0 4.0 15 44
r 2.429552 2 0 ack 40 ------- 1 4.0 0.0 8 36
+ 2.429552 0 2 tcp 592 ------- 1 0.0 4.0 17 46
- 2.429552 0 2 tcp 592 ------- 1 0.0 4.0 17 46
+ 2.429552 0 2 tcp 592 ------- 1 0.0 4.0 18 47
r 2.433237 0 2 tcp 592 ------- 1 0.0 4.0 16 45
+ 2.433237 2 3 tcp 592 ------- 1 0.0 4.0 16 45
- 2.434288 0 2 tcp 592 ------- 1 0.0 4.0 18 47
r 2.435019 3 2 ack 40 ------- 1 4.0 0.0 9 37
+ 2.435019 2 0 ack 40 ------- 1 4.0 0.0 9 37
- 2.435019 2 0 ack 40 ------- 1 4.0 0.0 9 37
r 2.439552 7 3 ack 40 ------- 1 4.0 0.0 14 42
+ 2.439552 3 2 ack 40 ------- 1 4.0 0.0 14 42
- 2.439552 3 2 ack 40 ------- 1 4.0 0.0 14 42
- 2.444288 2 3 tcp 592 ------- 1 0.0 4.0 16 45
r 2.444288 0 2 tcp 592 ------- 1 0.0 4.0 17 46
+ 2.444288 2 3 tcp 592 ------- 1 0.0 4.0 17 46
r 2.444671 7 6 cbr 1000 ------- 2 1.0 6.0 12 34
r 2.445339 2 0 ack 40 ------- 1 4.0 0.0 9 37
+ 2.445339 0 2 tcp 592 ------- 1 0.0 4.0 19 48
- 2.445339 0 2 tcp 592 ------- 1 0.0 4.0 19 48
+ 2.445339 0 2 tcp 592 ------- 1 0.0 4.0 20 49
r 2.449024 0 2 tcp 592 ------- 1 0.0 4.0 18 47
+ 2.449024 2 3 tcp 592 ------- 1 0.0 4.0 18 47
- 2.450075 0 2 tcp 592 ------- 1 0.0 4.0 20 49
r 2.450805 3 2 ack 40 ------- 1 4.0 0.0 10 38
+ 2.450805 2 0 ack 40 ------- 1 4.0 0.0 10 38
- 2.450805 2 0 ack 40 ------- 1 4.0 0.0 10 38
- 2.460075 2 3 tcp 592 ------- 1 0.0 4.0 17 46
r 2.460075 0 2 tcp 592 ------- 1 0.0 4.0 19 48
+ 2.460075 2 3 tcp 592 ------- 1 0.0 4.0 19 48
r 2.461125 2 0 ack 40 ------- 1 4.0 0.0 10 38
+ 2.461125 0 2 tcp 592 ------- 1 0.0 4.0 21 50
- 2.461125 0 2 tcp 592 ------- 1 0.0 4.0 21 50
+ 2.461125 0 2 tcp 592 ------- 1 0.0 4.0 22 51
r 2.464811 0 2 tcp 592 ------- 1 0.0 4.0 20 49
+ 2.464811 2 3 tcp 592 ------- 1 0.0 4.0 20 49
- 2.465861 0 2 tcp 592 ------- 1 0.0 4.0 22 51
r 2.466592 3 2 ack 40 ------- 1 4.0 0.0 11 39
+ 2.466592 2 0 ack 40 ------- 1 4.0 0.0 11 39
- 2.466592 2 0 ack 40 ------- 1 4.0 0.0 11 39
- 2.475861 2 3 tcp 592 ------- 1 0.0 4.0 18 47
r 2.475861 0 2 tcp 592 ------- 1 0.0 4.0 21 50
+ 2.475861 2 3 tcp 592 ------- 1 0.0 4.0 21 50
r 2.476912 2 0 ack 40 ------- 1 4.0 0.0 11 39
+ 2.476912 0 2 tcp 592 ------- 1 0.0 4.0 23 52
- 2.476912 0 2 tcp 592 ------- 1 0.0 4.0 23 52
+ 2.476912 0 2 tcp 592 ------- 1 0.0 4.0 24 53
r 2.480597 0 2 tcp 592 ------- 1 0.0 4.0 22 51
+ 2.480597 2 3 tcp 592 ------- 1 0.0 4.0 22 51
- 2.481648 0 2 tcp 592 ------- 1 0.0 4.0 24 53
r 2.482379 3 2 ack 40 ------- 1 4.0 0.0 12 40
+ 2.482379 2 0 ack 40 ------- 1 4.0 0.0 12 40
- 2.482379 2 0 ack 40 ------- 1 4.0 0.0 12 40
- 2.491648 2 3 tcp 592 ------- 1 0.0 4.0 19 48
r 2.491648 0 2 tcp 592 ------- 1 0.0 4.0 23 52
+ 2.491648 2 3 tcp 592 ------- 1 0.0 4.0 23 52
r 2.492699 2 0 ack 40 ------- 1 4.0 0.0 12 40
+ 2.492699 0 2 tcp 592 ------- 1 0.0 4.0 25 54
- 2.492699 0 2 tcp 592 ------- 1 0.0 4.0 25 54
+ 2.492699 0 2 tcp 592 ------- 1 0.0 4.0 26 55
r 2.496384 0 2 tcp 592 ------- 1 0.0 4.0 24 53
+ 2.496384 2 3 tcp 592 ------- 1 0.0 4.0 24 53
- 2.497435 0 2 tcp 592 ------- 1 0.0 4.0 26 55
r 2.498165 3 2 ack 40 ------- 1 4.0 0.0 13 41
+ 2.498165 2 0 ack 40 ------- 1 4.0 0.0 13 41
- 2.498165 2 0 ack 40 ------- 1 4.0 0.0 13 41
- 2.507435 2 3 tcp 592 ------- 1 0.0 4.0 20 49
r 2.507435 0 2 tcp 592 ------- 1 0.0 4.0 25 54
+ 2.507435 2 3 tcp 592 ------- 1 0.0 4.0 25 54
r 2.508485 2 0 ack 40 ------- 1 4.0 0.0 13 41
+ 2.508485 0 2 tcp 592 ------- 1 0.0 4.0 27 56
- 2.508485 0 2 tcp 592 ------- 1 0.0 4.0 27 56
+ 2.508485 0 2 tcp 592 ------- 1 0.0 4.0 28 57
r 2.512171 0 2 tcp 592 ------- 1 0.0 4.0 26 55
+ 2.512171 2 3 tcp 592 ------- 1 0.0 4.0 26 55
- 2.513221 0 2 tcp 592 ------- 1 0.0 4.0 28 57
- 2.523221 2 3 tcp 592 ------- 1 0.0 4.0 21 50
r 2.523221 0 2 tcp 592 ------- 1 0.0 4.0 27 56
+ 2.523221 2 3 tcp 592 ------- 1 0.0 4.0 27 56
r 2.524667 2 3 cbr 1000 ------- 2 1.0 6.0 13 43
h 2.524667 3 7 cbr 1000 ------- 2 1.0 6.0 13 43
r 2.527957 0 2 tcp 592 ------- 1 0.0 4.0 28 57
+ 2.527957 2 3 tcp 592 ------- 1 0.0 4.0 28 57
- 2.539008 2 3 tcp 592 ------- 1 0.0 4.0 22 51
+ 2.54 1 2 cbr 1000 ------- 2 1.0 6.0 14 58
- 2.54 1 2 cbr 1000 ------- 2 1.0 6.0 14 58
r 2.540619 3 2 ack 40 ------- 1 4.0 0.0 14 42
+ 2.540619 2 0 ack 40 ------- 1 4.0 0.0 14 42
- 2.540619 2 0 ack 40 ------- 1 4.0 0.0 14 42
r 2.544288 2 3 tcp 592 ------- 1 0.0 4.0 15 44
h 2.544288 3 7 tcp 592 ------- 1 0.0 4.0 15 44
r 2.550939 2 0 ack 40 ------- 1 4.0 0.0 14 42
+ 2.550939 0 2 tcp 592 ------- 1 0.0 4.0 29 59
- 2.550939 0 2 tcp 592 ------- 1 0.0 4.0 29 59
+ 2.550939 0 2 tcp 592 ------- 1 0.0 4.0 30 60
- 2.554795 2 3 tcp 592 ------- 1 0.0 4.0 23 52
- 2.555675 0 2 tcp 592 ------- 1 0.0 4.0 30 60
r 2.558 1 2 cbr 1000 ------- 2 1.0 6.0 14 58
+ 2.558 2 3 cbr 1000 ------- 2 1.0 6.0 14 58
r 2.560075 2 3 tcp 592 ------- 1 0.0 4.0 16 45
h 2.560075 3 7 tcp 592 ------- 1 0.0 4.0 16 45
+ 2.564667 3 7 cbr 1000 ------- 2 1.0 6.0 13 43
- 2.564667 3 7 cbr 1000 ------- 2 1.0 6.0 13 43
d 2.564671 5 7 cbr 1000 ------- 2 1.0 6.0 13 43
d 2.564671 4 7 cbr 1000 ------- 2 1.0 6.0 13 43
r 2.565675 0 2 tcp 592 ------- 1 0.0 4.0 29 59
+ 2.565675 2 3 tcp 592 ------- 1 0.0 4.0 29 59
r 2.570411 0 2 tcp 592 ------- 1 0.0 4.0 30 60
+ 2.570411 2 3 tcp 592 ------- 1 0.0 4.0 30 60
- 2.570581 2 3 tcp 592 ------- 1 0.0 4.0 24 53
r 2.575861 2 3 tcp 592 ------- 1 0.0 4.0 17 46
h 2.575861 3 7 tcp 592 ------- 1 0.0 4.0 17 46
+ 2.584288 3 7 tcp 592 ------- 1 0.0 4.0 15 44
- 2.584288 3 7 tcp 592 ------- 1 0.0 4.0 15 44
d 2.584292 6 7 tcp 592 ------- 1 0.0 4.0 15 44
d 2.584292 5 7 tcp 592 ------- 1 0.0 4.0 15 44
- 2.586368 2 3 tcp 592 ------- 1 0.0 4.0 25 54
r 2.591648 2 3 tcp 592 ------- 1 0.0 4.0 18 47
h 2.591648 3 7 tcp 592 ------- 1 0.0 4.0 18 47
+ 2.600075 3 7 tcp 592 ------- 1 0.0 4.0 16 45
- 2.600075 3 7 tcp 592 ------- 1 0.0 4.0 16 45
d 2.600079 6 7 tcp 592 ------- 1 0.0 4.0 16 45
d 2.600079 5 7 tcp 592 ------- 1 0.0 4.0 16 45
- 2.602155 2 3 tcp 592 ------- 1 0.0 4.0 26 55
r 2.604671 7 6 cbr 1000 ------- 2 1.0 6.0 13 43
r 2.607435 2 3 tcp 592 ------- 1 0.0 4.0 19 48
h 2.607435 3 7 tcp 592 ------- 1 0.0 4.0 19 48
+ 2.615861 3 7 tcp 592 ------- 1 0.0 4.0 17 46
- 2.615861 3 7 tcp 592 ------- 1 0.0 4.0 17 46
d 2.615865 6 7 tcp 592 ------- 1 0.0 4.0 17 46
d 2.615865 5 7 tcp 592 ------- 1 0.0 4.0 17 46
- 2.617941 2 3 tcp 592 ------- 1 0.0 4.0 27 56
r 2.623221 2 3 tcp 592 ------- 1 0.0 4.0 20 49
h 2.623221 3 7 tcp 592 ------- 1 0.0 4.0 20 49
r 2.624292 7 4 tcp 592 ------- 1 0.0 4.0 15 44
h 2.624292 4 7 ack 40 ------- 1 4.0 0.0 15 61
+ 2.631648 3 7 tcp 592 ------- 1 0.0 4.0 18 47
- 2.631648 3 7 tcp 592 ------- 1 0.0 4.0 18 47
d 2.631652 6 7 tcp 592 ------- 1 0.0 4.0 18 47
d 2.631652 5 7 tcp 592 ------- 1 0.0 4.0 18 47
- 2.633728 2 3 tcp 592 ------- 1 0.0 4.0 28 57
r 2.639008 2 3 tcp 592 ------- 1 0.0 4.0 21 50
h 2.639008 3 7 tcp 592 ------- 1 0.0 4.0 21 50
r 2.640079 7 4 tcp 592 ------- 1 0.0 4.0 16 45
h 2.640079 4 7 ack 40 ------- 1 4.0 0.0 16 62
+ 2.647435 3 7 tcp 592 ------- 1 0.0 4.0 19 48
- 2.647435 3 7 tcp 592 ------- 1 0.0 4.0 19 48
d 2.647439 6 7 tcp 592 ------- 1 0.0 4.0 19 48
d 2.647439 5 7 tcp 592 ------- 1 0.0 4.0 19 48
- 2.649515 2 3 cbr 1000 ------- 2 1.0 6.0 14 58
r 2.654795 2 3 tcp 592 ------- 1 0.0 4.0 22 51
h 2.654795 3 7 tcp 592 ------- 1 0.0 4.0 22 51
r 2.655865 7 4 tcp 592 ------- 1 0.0 4.0 17 46
h 2.655865 4 7 ack 40 ------- 1 4.0 0.0 17 63
+ 2.663221 3 7 tcp 592 ------- 1 0.0 4.0 20 49