+ 0.1 1 0 ping 64 ------- 0 1.0 4.0 -1 0
- 0.1 1 0 ping 64 ------- 0 1.0 4.0 -1 0
r 0.110512 1 0 ping 64 ------- 0 1.0 4.0 -1 0
+ 0.110512 0 4 ping 64 ------- 0 1.0 4.0 -1 0
- 0.110512 0 4 ping 64 ------- 0 1.0 4.0 -1 0
r 0.121024 0 4 ping 64 ------- 0 1.0 4.0 -1 0
+ 0.121024 4 0 ping 64 ------- 0 4.0 1.0 -1 1
- 0.121024 4 0 ping 64 ------- 0 4.0 1.0 -1 1
r 0.131536 4 0 ping 64 ------- 0 4.0 1.0 -1 1
+ 0.131536 0 1 ping 64 ------- 0 4.0 1.0 -1 1
- 0.131536 0 1 ping 64 ------- 0 4.0 1.0 -1 1
r 0.142048 0 1 ping 64 ------- 0 4.0 1.0 -1 1
+ 0.5 2 0 ping 64 ------- 0 2.0 5.0 -1 2
- 0.5 2 0 ping 64 ------- 0 2.0 5.0 -1 2
+ 0.5 3 0 ping 64 ------- 0 3.0 6.0 -1 3
- 0.5 3 0 ping 64 ------- 0 3.0 6.0 -1 3
+ 0.5 4 0 ping 64 ------- 0 4.0 1.0 -1 4
- 0.5 4 0 ping 64 ------- 0 4.0 1.0 -1 4
r 0.510512 2 0 ping 64 ------- 0 2.0 5.0 -1 2
+ 0.510512 0 5 ping 64 ------- 0 2.0 5.0 -1 2
- 0.510512 0 5 ping 64 ------- 0 2.0 5.0 -1 2
r 0.510512 3 0 ping 64 ------- 0 3.0 6.0 -1 3
+ 0.510512 0 6 ping 64 ------- 0 3.0 6.0 -1 3
d 0.510512 0 6 ping 64 ------- 0 3.0 6.0 -1 3
r 0.510512 4 0 ping 64 ------- 0 4.0 1.0 -1 4
+ 0.510512 0 1 ping 64 ------- 0 4.0 1.0 -1 4
- 0.510512 0 1 ping 64 ------- 0 4.0 1.0 -1 4
r 0.521024 0 5 ping 64 ------- 0 2.0 5.0 -1 2
+ 0.521024 5 0 ping 64 ------- 0 5.0 2.0 -1 5
- 0.521024 5 0 ping 64 ------- 0 5.0 2.0 -1 5
r 0.521024 0 1 ping 64 ------- 0 4.0 1.0 -1 4
+ 0.521024 1 0 ping 64 ------- 0 1.0 4.0 -1 6
- 0.521024 1 0 ping 64 ------- 0 1.0 4.0 -1 6
r 0.531536 5 0 ping 64 ------- 0 5.0 2.0 -1 5
+ 0.531536 0 2 ping 64 ------- 0 5.0 2.0 -1 5
- 0.531536 0 2 ping 64 ------- 0 5.0 2.0 -1 5
r 0.531536 1 0 ping 64 ------- 0 1.0 4.0 -1 6
+ 0.531536 0 4 ping 64 ------- 0 1.0 4.0 -1 6
- 0.531536 0 4 ping 64 ------- 0 1.0 4.0 -1 6
r 0.542048 0 2 ping 64 ------- 0 5.0 2.0 -1 5
r 0.542048 0 4 ping 64 ------- 0 1.0 4.0 -1 6
+ 1 5 0 ping 64 ------- 0 5.0 2.0 -1 7
- 1 5 0 ping 64 ------- 0 5.0 2.0 -1 7
+ 1 6 0 ping 64 ------- 0 6.0 3.0 -1 8
- 1 6 0 ping 64 ------- 0 6.0 3.0 -1 8
r 1.010512 5 0 ping 64 ------- 0 5.0 2.0 -1 7
+ 1.010512 0 2 ping 64 ------- 0 5.0 2.0 -1 7
- 1.010512 0 2 ping 64 ------- 0 5.0 2.0 -1 7
r 1.010512 6 0 ping 64 ------- 0 6.0 3.0 -1 8
+ 1.010512 0 3 ping 64 ------- 0 6.0 3.0 -1 8
- 1.010512 0 3 ping 64 ------- 0 6.0 3.0 -1 8
r 1.021024 0 2 ping 64 ------- 0 5.0 2.0 -1 7
+ 1.021024 2 0 ping 64 ------- 0 2.0 5.0 -1 9
- 1.021024 2 0 ping 64 ------- 0 2.0 5.0 -1 9
r 1.021024 0 3 ping 64 ------- 0 6.0 3.0 -1 8
+ 1.021024 3 0 ping 64 ------- 0 3.0 6.0 -1 10
- 1.021024 3 0 ping 64 ------- 0 3.0 6.0 -1 10
r 1.031536 2 0 ping 64 ------- 0 2.0 5.0 -1 9
+ 1.031536 0 5 ping 64 ------- 0 2.0 5.0 -1 9
- 1.031536 0 5 ping 64 ------- 0 2.0 5.0 -1 9
r 1.031536 3 0 ping 64 ------- 0 3.0 6.0 -1 10
+ 1.031536 0 6 ping 64 ------- 0 3.0 6.0 -1 10
d 1.031536 0 6 ping 64 ------- 0 3.0 6.0 -1 10
r 1.042048 0 5 ping 64 ------- 0 2.0 5.0 -1 9
+ 1.1 1 0 ping 64 ------- 0 1.0 4.0 -1 11
- 1.1 1 0 ping 64 ------- 0 1.0 4.0 -1 11
r 1.110512 1 0 ping 64 ------- 0 1.0 4.0 -1 11
+ 1.110512 0 4 ping 64 ------- 0 1.0 4.0 -1 11
- 1.110512 0 4 ping 64 ------- 0 1.0 4.0 -1 11
r 1.121024 0 4 ping 64 ------- 0 1.0 4.0 -1 11
+ 1.121024 4 0 ping 64 ------- 0 4.0 1.0 -1 12
- 1.121024 4 0 ping 64 ------- 0 4.0 1.0 -1 12
r 1.131536 4 0 ping 64 ------- 0 4.0 1.0 -1 12
+ 1.131536 0 1 ping 64 ------- 0 4.0 1.0 -1 12
- 1.131536 0 1 ping 64 ------- 0 4.0 1.0 -1 12
r 1.142048 0 1 ping 64 ------- 0 4.0 1.0 -1 12
+ 1.5 2 0 ping 64 ------- 0 2.0 5.0 -1 13
- 1.5 2 0 ping 64 ------- 0 2.0 5.0 -1 13
+ 1.5 3 0 ping 64 ------- 0 3.0 6.0 -1 14
- 1.5 3 0 ping 64 ------- 0 3.0 6.0 -1 14
+ 1.5 4 0 ping 64 ------- 0 4.0 1.0 -1 15
- 1.5 4 0 ping 64 ------- 0 4.0 1.0 -1 15
r 1.510512 2 0 ping 64 ------- 0 2.0 5.0 -1 13
+ 1.510512 0 5 ping 64 ------- 0 2.0 5.0 -1 13
- 1.510512 0 5 ping 64 ------- 0 2.0 5.0 -1 13
r 1.510512 3 0 ping 64 ------- 0 3.0 6.0 -1 14
+ 1.510512 0 6 ping 64 ------- 0 3.0 6.0 -1 14
d 1.510512 0 6 ping 64 ------- 0 3.0 6.0 -1 14
r 1.510512 4 0 ping 64 ------- 0 4.0 1.0 -1 15
+ 1.510512 0 1 ping 64 ------- 0 4.0 1.0 -1 15
- 1.510512 0 1 ping 64 ------- 0 4.0 1.0 -1 15
r 1.521024 0 5 ping 64 ------- 0 2.0 5.0 -1 13
+ 1.521024 5 0 ping 64 ------- 0 5.0 2.0 -1 16
- 1.521024 5 0 ping 64 ------- 0 5.0 2.0 -1 16
r 1.521024 0 1 ping 64 ------- 0 4.0 1.0 -1 15
+ 1.521024 1 0 ping 64 ------- 0 1.0 4.0 -1 17
- 1.521024 1 0 ping 64 ------- 0 1.0 4.0 -1 17
r 1.531536 5 0 ping 64 ------- 0 5.0 2.0 -1 16
+ 1.531536 0 2 ping 64 ------- 0 5.0 2.0 -1 16
- 1.531536 0 2 ping 64 ------- 0 5.0 2.0 -1 16
r 1.531536 1 0 ping 64 ------- 0 1.0 4.0 -1 17
+ 1.531536 0 4 ping 64 ------- 0 1.0 4.0 -1 17
- 1.531536 0 4 ping 64 ------- 0 1.0 4.0 -1 17
r 1.542048 0 2 ping 64 ------- 0 5.0 2.0 -1 16
r 1.542048 0 4 ping 64 ------- 0 1.0 4.0 -1 17
+ 2 5 0 ping 64 ------- 0 5.0 2.0 -1 18
- 2 5 0 ping 64 ------- 0 5.0 2.0 -1 18
+ 2 6 0 ping 64 ------- 0 6.0 3.0 -1 19
- 2 6 0 ping 64 ------- 0 6.0 3.0 -1 19
r 2.010512 5 0 ping 64 ------- 0 5.0 2.0 -1 18
+ 2.010512 0 2 ping 64 ------- 0 5.0 2.0 -1 18
- 2.010512 0 2 ping 64 ------- 0 5.0 2.0 -1 18
r 2.010512 6 0 ping 64 ------- 0 6.0 3.0 -1 19
+ 2.010512 0 3 ping 64 ------- 0 6.0 3.0 -1 19
- 2.010512 0 3 ping 64 ------- 0 6.0 3.0 -1 19
r 2.021024 0 2 ping 64 ------- 0 5.0 2.0 -1 18
+ 2.021024 2 0 ping 64 ------- 0 2.0 5.0 -1 20
- 2.021024 2 0 ping 64 ------- 0 2.0 5.0 -1 20
r 2.021024 0 3 ping 64 ------- 0 6.0 3.0 -1 19
+ 2.021024 3 0 ping 64 ------- 0 3.0 6.0 -1 21
- 2.021024 3 0 ping 64 ------- 0 3.0 6.0 -1 21
r 2.031536 2 0 ping 64 ------- 0 2.0 5.0 -1 20
+ 2.031536 0 5 ping 64 ------- 0 2.0 5.0 -1 20
- 2.031536 0 5 ping 64 ------- 0 2.0 5.0 -1 20
r 2.031536 3 0 ping 64 ------- 0 3.0 6.0 -1 21
+ 2.031536 0 6 ping 64 ------- 0 3.0 6.0 -1 21
d 2.031536 0 6 ping 64 ------- 0 3.0 6.0 -1 21
r 2.042048 0 5 ping 64 ------- 0 2.0 5.0 -1 20
