+ 0.6 1 2 tcp 40 ------- 0 1.0 3.1 0 0
- 0.6 1 2 tcp 40 ------- 0 1.0 3.1 0 0
r 0.61016 1 2 tcp 40 ------- 0 1.0 3.1 0 0
+ 0.61016 2 3 tcp 40 ------- 0 1.0 3.1 0 0
- 0.61016 2 3 tcp 40 ------- 0 1.0 3.1 0 0
r 0.620516 2 3 tcp 40 ------- 0 1.0 3.1 0 0
+ 0.620516 3 2 ack 40 ------- 0 3.1 1.0 0 1
- 0.620516 3 2 ack 40 ------- 0 3.1 1.0 0 1
r 0.630871 3 2 ack 40 ------- 0 3.1 1.0 0 1
+ 0.630871 2 1 ack 40 ------- 0 3.1 1.0 0 1
- 0.630871 2 1 ack 40 ------- 0 3.1 1.0 0 1
r 0.641031 2 1 ack 40 ------- 0 3.1 1.0 0 1
+ 0.641031 1 2 tcp 1040 ------- 0 1.0 3.1 1 2
- 0.641031 1 2 tcp 1040 ------- 0 1.0 3.1 1 2
+ 0.641031 1 2 tcp 1040 ------- 0 1.0 3.1 2 3
- 0.645191 1 2 tcp 1040 ------- 0 1.0 3.1 2 3
r 0.655191 1 2 tcp 1040 ------- 0 1.0 3.1 1 2
+ 0.655191 2 3 tcp 1040 ------- 0 1.0 3.1 1 2
- 0.655191 2 3 tcp 1040 ------- 0 1.0 3.1 1 2
r 0.659351 1 2 tcp 1040 ------- 0 1.0 3.1 2 3
+ 0.659351 2 3 tcp 1040 ------- 0 1.0 3.1 2 3
- 0.664436 2 3 tcp 1040 ------- 0 1.0 3.1 2 3
r 0.674436 2 3 tcp 1040 ------- 0 1.0 3.1 1 2
+ 0.674436 3 2 ack 40 ------- 0 3.1 1.0 1 4
- 0.674436 3 2 ack 40 ------- 0 3.1 1.0 1 4
r 0.68368 2 3 tcp 1040 ------- 0 1.0 3.1 2 3
+ 0.68368 3 2 ack 40 ------- 0 3.1 1.0 2 5
- 0.68368 3 2 ack 40 ------- 0 3.1 1.0 2 5
r 0.684791 3 2 ack 40 ------- 0 3.1 1.0 1 4
+ 0.684791 2 1 ack 40 ------- 0 3.1 1.0 1 4
- 0.684791 2 1 ack 40 ------- 0 3.1 1.0 1 4
r 0.694036 3 2 ack 40 ------- 0 3.1 1.0 2 5
+ 0.694036 2 1 ack 40 ------- 0 3.1 1.0 2 5
- 0.694036 2 1 ack 40 ------- 0 3.1 1.0 2 5
r 0.694951 2 1 ack 40 ------- 0 3.1 1.0 1 4
+ 0.694951 1 2 tcp 1040 ------- 0 1.0 3.1 3 6
- 0.694951 1 2 tcp 1040 ------- 0 1.0 3.1 3 6
+ 0.694951 1 2 tcp 1040 ------- 0 1.0 3.1 4 7
- 0.699111 1 2 tcp 1040 ------- 0 1.0 3.1 4 7
r 0.704196 2 1 ack 40 ------- 0 3.1 1.0 2 5
+ 0.704196 1 2 tcp 1040 ------- 0 1.0 3.1 5 8
- 0.704196 1 2 tcp 1040 ------- 0 1.0 3.1 5 8
+ 0.704196 1 2 tcp 1040 ------- 0 1.0 3.1 6 9
- 0.708356 1 2 tcp 1040 ------- 0 1.0 3.1 6 9
r 0.709111 1 2 tcp 1040 ------- 0 1.0 3.1 3 6
+ 0.709111 2 3 tcp 1040 ------- 0 1.0 3.1 3 6
- 0.709111 2 3 tcp 1040 ------- 0 1.0 3.1 3 6
r 0.713271 1 2 tcp 1040 ------- 0 1.0 3.1 4 7
+ 0.713271 2 3 tcp 1040 ------- 0 1.0 3.1 4 7
- 0.718356 2 3 tcp 1040 ------- 0 1.0 3.1 4 7
r 0.718356 1 2 tcp 1040 ------- 0 1.0 3.1 5 8
+ 0.718356 2 3 tcp 1040 ------- 0 1.0 3.1 5 8
r 0.722516 1 2 tcp 1040 ------- 0 1.0 3.1 6 9
+ 0.722516 2 3 tcp 1040 ------- 0 1.0 3.1 6 9
- 0.7276 2 3 tcp 1040 ------- 0 1.0 3.1 5 8
r 0.728356 2 3 tcp 1040 ------- 0 1.0 3.1 3 6
+ 0.728356 3 2 ack 40 ------- 0 3.1 1.0 3 10
- 0.728356 3 2 ack 40 ------- 0 3.1 1.0 3 10
- 0.736844 2 3 tcp 1040 ------- 0 1.0 3.1 6 9
r 0.7376 2 3 tcp 1040 ------- 0 1.0 3.1 4 7
+ 0.7376 3 2 ack 40 ------- 0 3.1 1.0 4 11
- 0.7376 3 2 ack 40 ------- 0 3.1 1.0 4 11
r 0.738711 3 2 ack 40 ------- 0 3.1 1.0 3 10
+ 0.738711 2 1 ack 40 ------- 0 3.1 1.0 3 10
- 0.738711 2 1 ack 40 ------- 0 3.1 1.0 3 10
r 0.746844 2 3 tcp 1040 ------- 0 1.0 3.1 5 8
+ 0.746844 3 2 ack 40 ------- 0 3.1 1.0 5 12
- 0.746844 3 2 ack 40 ------- 0 3.1 1.0 5 12
r 0.747956 3 2 ack 40 ------- 0 3.1 1.0 4 11
+ 0.747956 2 1 ack 40 ------- 0 3.1 1.0 4 11
- 0.747956 2 1 ack 40 ------- 0 3.1 1.0 4 11
r 0.748871 2 1 ack 40 ------- 0 3.1 1.0 3 10
+ 0.748871 1 2 tcp 1040 ------- 0 1.0 3.1 7 13
- 0.748871 1 2 tcp 1040 ------- 0 1.0 3.1 7 13
+ 0.748871 1 2 tcp 1040 ------- 0 1.0 3.1 8 14
- 0.753031 1 2 tcp 1040 ------- 0 1.0 3.1 8 14
r 0.756089 2 3 tcp 1040 ------- 0 1.0 3.1 6 9
+ 0.756089 3 2 ack 40 ------- 0 3.1 1.0 6 15
- 0.756089 3 2 ack 40 ------- 0 3.1 1.0 6 15
r 0.7572 3 2 ack 40 ------- 0 3.1 1.0 5 12
+ 0.7572 2 1 ack 40 ------- 0 3.1 1.0 5 12
- 0.7572 2 1 ack 40 ------- 0 3.1 1.0 5 12
r 0.758116 2 1 ack 40 ------- 0 3.1 1.0 4 11
+ 0.758116 1 2 tcp 1040 ------- 0 1.0 3.1 9 16
- 0.758116 1 2 tcp 1040 ------- 0 1.0 3.1 9 16
+ 0.758116 1 2 tcp 1040 ------- 0 1.0 3.1 10 17
- 0.762276 1 2 tcp 1040 ------- 0 1.0 3.1 10 17
r 0.763031 1 2 tcp 1040 ------- 0 1.0 3.1 7 13
+ 0.763031 2 3 tcp 1040 ------- 0 1.0 3.1 7 13
- 0.763031 2 3 tcp 1040 ------- 0 1.0 3.1 7 13
r 0.766444 3 2 ack 40 ------- 0 3.1 1.0 6 15
+ 0.766444 2 1 ack 40 ------- 0 3.1 1.0 6 15
- 0.766444 2 1 ack 40 ------- 0 3.1 1.0 6 15
r 0.767191 1 2 tcp 1040 ------- 0 1.0 3.1 8 14
+ 0.767191 2 3 tcp 1040 ------- 0 1.0 3.1 8 14
r 0.76736 2 1 ack 40 ------- 0 3.1 1.0 5 12
+ 0.76736 1 2 tcp 1040 ------- 0 1.0 3.1 11 18
- 0.76736 1 2 tcp 1040 ------- 0 1.0 3.1 11 18
+ 0.76736 1 2 tcp 1040 ------- 0 1.0 3.1 12 19
- 0.77152 1 2 tcp 1040 ------- 0 1.0 3.1 12 19
r 0.772276 1 2 tcp 1040 ------- 0 1.0 3.1 9 16
+ 0.772276 2 3 tcp 1040 ------- 0 1.0 3.1 9 16
- 0.772276 2 3 tcp 1040 ------- 0 1.0 3.1 8 14
r 0.776436 1 2 tcp 1040 ------- 0 1.0 3.1 10 17
+ 0.776436 2 3 tcp 1040 ------- 0 1.0 3.1 10 17
r 0.776604 2 1 ack 40 ------- 0 3.1 1.0 6 15
+ 0.776604 1 2 tcp 1040 ------- 0 1.0 3.1 13 20
- 0.776604 1 2 tcp 1040 ------- 0 1.0 3.1 13 20
+ 0.776604 1 2 tcp 1040 ------- 0 1.0 3.1 14 21
- 0.780764 1 2 tcp 1040 ------- 0 1.0 3.1 14 21
r 0.78152 1 2 tcp 1040 ------- 0 1.0 3.1 11 18
+ 0.78152 2 3 tcp 1040 ------- 0 1.0 3.1 11 18
- 0.78152 2 3 tcp 1040 ------- 0 1.0 3.1 9 16
r 0.782276 2 3 tcp 1040 ------- 0 1.0 3.1 7 13
+ 0.782276 3 2 ack 40 ------- 0 3.1 1.0 7 22
- 0.782276 3 2 ack 40 ------- 0 3.1 1.0 7 22
r 0.78568 1 2 tcp 1040 ------- 0 1.0 3.1 12 19
+ 0.78568 2 3 tcp 1040 ------- 0 1.0 3.1 12 19
r 0.790764 1 2 tcp 1040 ------- 0 1.0 3.1 13 20
+ 0.790764 2 3 tcp 1040 ------- 0 1.0 3.1 13 20
- 0.790764 2 3 tcp 1040 ------- 0 1.0 3.1 10 17
r 0.79152 2 3 tcp 1040 ------- 0 1.0 3.1 8 14
+ 0.79152 3 2 ack 40 ------- 0 3.1 1.0 8 23
- 0.79152 3 2 ack 40 ------- 0 3.1 1.0 8 23
r 0.792631 3 2 ack 40 ------- 0 3.1 1.0 7 22
+ 0.792631 2 1 ack 40 ------- 0 3.1 1.0 7 22
- 0.792631 2 1 ack 40 ------- 0 3.1 1.0 7 22
r 0.794924 1 2 tcp 1040 ------- 0 1.0 3.1 14 21
+ 0.794924 2 3 tcp 1040 ------- 0 1.0 3.1 14 21
- 0.800009 2 3 tcp 1040 ------- 0 1.0 3.1 11 18
r 0.800764 2 3 tcp 1040 ------- 0 1.0 3.1 9 16
+ 0.800764 3 2 ack 40 ------- 0 3.1 1.0 9 24
- 0.800764 3 2 ack 40 ------- 0 3.1 1.0 9 24
r 0.801876 3 2 ack 40 ------- 0 3.1 1.0 8 23
+ 0.801876 2 1 ack 40 ------- 0 3.1 1.0 8 23
- 0.801876 2 1 ack 40 ------- 0 3.1 1.0 8 23
r 0.802791 2 1 ack 40 ------- 0 3.1 1.0 7 22
+ 0.802791 1 2 tcp 1040 ------- 0 1.0 3.1 15 25
- 0.802791 1 2 tcp 1040 ------- 0 1.0 3.1 15 25
+ 0.802791 1 2 tcp 1040 ------- 0 1.0 3.1 16 26
- 0.806951 1 2 tcp 1040 ------- 0 1.0 3.1 16 26
- 0.809253 2 3 tcp 1040 ------- 0 1.0 3.1 12 19
r 0.810009 2 3 tcp 1040 ------- 0 1.0 3.1 10 17
+ 0.810009 3 2 ack 40 ------- 0 3.1 1.0 10 27
- 0.810009 3 2 ack 40 ------- 0 3.1 1.0 10 27
r 0.81112 3 2 ack 40 ------- 0 3.1 1.0 9 24
+ 0.81112 2 1 ack 40 ------- 0 3.1 1.0 9 24
- 0.81112 2 1 ack 40 ------- 0 3.1 1.0 9 24
r 0.812036 2 1 ack 40 ------- 0 3.1 1.0 8 23
+ 0.812036 1 2 tcp 1040 ------- 0 1.0 3.1 17 28
- 0.812036 1 2 tcp 1040 ------- 0 1.0 3.1 17 28
+ 0.812036 1 2 tcp 1040 ------- 0 1.0 3.1 18 29
- 0.816196 1 2 tcp 1040 ------- 0 1.0 3.1 18 29
r 0.816951 1 2 tcp 1040 ------- 0 1.0 3.1 15 25
+ 0.816951 2 3 tcp 1040 ------- 0 1.0 3.1 15 25
- 0.818498 2 3 tcp 1040 ------- 0 1.0 3.1 13 20
r 0.819253 2 3 tcp 1040 ------- 0 1.0 3.1 11 18
+ 0.819253 3 2 ack 40 ------- 0 3.1 1.0 11 30
- 0.819253 3 2 ack 40 ------- 0 3.1 1.0 11 30
r 0.820364 3 2 ack 40 ------- 0 3.1 1.0 10 27
+ 0.820364 2 1 ack 40 ------- 0 3.1 1.0 10 27
- 0.820364 2 1 ack 40 ------- 0 3.1 1.0 10 27
r 0.821111 1 2 tcp 1040 ------- 0 1.0 3.1 16 26
+ 0.821111 2 3 tcp 1040 ------- 0 1.0 3.1 16 26
r 0.82128 2 1 ack 40 ------- 0 3.1 1.0 9 24
+ 0.82128 1 2 tcp 1040 ------- 0 1.0 3.1 19 31
- 0.82128 1 2 tcp 1040 ------- 0 1.0 3.1 19 31
+ 0.82128 1 2 tcp 1040 ------- 0 1.0 3.1 20 32
- 0.82544 1 2 tcp 1040 ------- 0 1.0 3.1 20 32
r 0.826196 1 2 tcp 1040 ------- 0 1.0 3.1 17 28
+ 0.826196 2 3 tcp 1040 ------- 0 1.0 3.1 17 28
- 0.827742 2 3 tcp 1040 ------- 0 1.0 3.1 14 21
r 0.828498 2 3 tcp 1040 ------- 0 1.0 3.1 12 19
+ 0.828498 3 2 ack 40 ------- 0 3.1 1.0 12 33
- 0.828498 3 2 ack 40 ------- 0 3.1 1.0 12 33
r 0.829609 3 2 ack 40 ------- 0 3.1 1.0 11 30
+ 0.829609 2 1 ack 40 ------- 0 3.1 1.0 11 30
- 0.829609 2 1 ack 40 ------- 0 3.1 1.0 11 30
r 0.830356 1 2 tcp 1040 ------- 0 1.0 3.1 18 29
+ 0.830356 2 3 tcp 1040 ------- 0 1.0 3.1 18 29
r 0.830524 2 1 ack 40 ------- 0 3.1 1.0 10 27
+ 0.830524 1 2 tcp 1040 ------- 0 1.0 3.1 21 34
- 0.830524 1 2 tcp 1040 ------- 0 1.0 3.1 21 34
+ 0.830524 1 2 tcp 1040 ------- 0 1.0 3.1 22 35
- 0.834684 1 2 tcp 1040 ------- 0 1.0 3.1 22 35
r 0.83544 1 2 tcp 1040 ------- 0 1.0 3.1 19 31
+ 0.83544 2 3 tcp 1040 ------- 0 1.0 3.1 19 31
- 0.836987 2 3 tcp 1040 ------- 0 1.0 3.1 15 25
r 0.837742 2 3 tcp 1040 ------- 0 1.0 3.1 13 20
+ 0.837742 3 2 ack 40 ------- 0 3.1 1.0 13 36
- 0.837742 3 2 ack 40 ------- 0 3.1 1.0 13 36
r 0.838853 3 2 ack 40 ------- 0 3.1 1.0 12 33
+ 0.838853 2 1 ack 40 ------- 0 3.1 1.0 12 33
- 0.838853 2 1 ack 40 ------- 0 3.1 1.0 12 33
r 0.8396 1 2 tcp 1040 ------- 0 1.0 3.1 20 32
+ 0.8396 2 3 tcp 1040 ------- 0 1.0 3.1 20 32
r 0.839769 2 1 ack 40 ------- 0 3.1 1.0 11 30
+ 0.839769 1 2 tcp 1040 ------- 0 1.0 3.1 23 37
- 0.839769 1 2 tcp 1040 ------- 0 1.0 3.1 23 37
+ 0.839769 1 2 tcp 1040 ------- 0 1.0 3.1 24 38
- 0.843929 1 2 tcp 1040 ------- 0 1.0 3.1 24 38
r 0.844684 1 2 tcp 1040 ------- 0 1.0 3.1 21 34
+ 0.844684 2 3 tcp 1040 ------- 0 1.0 3.1 21 34
- 0.846231 2 3 tcp 1040 ------- 0 1.0 3.1 16 26
r 0.846987 2 3 tcp 1040 ------- 0 1.0 3.1 14 21
+ 0.846987 3 2 ack 40 ------- 0 3.1 1.0 14 39
- 0.846987 3 2 ack 40 ------- 0 3.1 1.0 14 39
r 0.848098 3 2 ack 40 ------- 0 3.1 1.0 13 36
+ 0.848098 2 1 ack 40 ------- 0 3.1 1.0 13 36
- 0.848098 2 1 ack 40 ------- 0 3.1 1.0 13 36
r 0.848844 1 2 tcp 1040 ------- 0 1.0 3.1 22 35
+ 0.848844 2 3 tcp 1040 ------- 0 1.0 3.1 22 35
r 0.849013 2 1 ack 40 ------- 0 3.1 1.0 12 33
+ 0.849013 1 2 tcp 1040 ------- 0 1.0 3.1 25 40
- 0.849013 1 2 tcp 1040 ------- 0 1.0 3.1 25 40
+ 0.849013 1 2 tcp 1040 ------- 0 1.0 3.1 26 41
- 0.853173 1 2 tcp 1040 ------- 0 1.0 3.1 26 41
r 0.853929 1 2 tcp 1040 ------- 0 1.0 3.1 23 37
+ 0.853929 2 3 tcp 1040 ------- 0 1.0 3.1 23 37
- 0.855476 2 3 tcp 1040 ------- 0 1.0 3.1 17 28
r 0.856231 2 3 tcp 1040 ------- 0 1.0 3.1 15 25
+ 0.856231 3 2 ack 40 ------- 0 3.1 1.0 15 42
- 0.856231 3 2 ack 40 ------- 0 3.1 1.0 15 42
r 0.857342 3 2 ack 40 ------- 0 3.1 1.0 14 39
+ 0.857342 2 1 ack 40 ------- 0 3.1 1.0 14 39
- 0.857342 2 1 ack 40 ------- 0 3.1 1.0 14 39
r 0.858089 1 2 tcp 1040 ------- 0 1.0 3.1 24 38
+ 0.858089 2 3 tcp 1040 ------- 0 1.0 3.1 24 38
r 0.858258 2 1 ack 40 ------- 0 3.1 1.0 13 36
+ 0.858258 1 2 tcp 1040 ------- 0 1.0 3.1 27 43
- 0.858258 1 2 tcp 1040 ------- 0 1.0 3.1 27 43
+ 0.858258 1 2 tcp 1040 ------- 0 1.0 3.1 28 44
- 0.862418 1 2 tcp 1040 ------- 0 1.0 3.1 28 44
r 0.863173 1 2 tcp 1040 ------- 0 1.0 3.1 25 40
+ 0.863173 2 3 tcp 1040 ------- 0 1.0 3.1 25 40
- 0.86472 2 3 tcp 1040 ------- 0 1.0 3.1 18 29
r 0.865476 2 3 tcp 1040 ------- 0 1.0 3.1 16 26
+ 0.865476 3 2 ack 40 ------- 0 3.1 1.0 16 45
- 0.865476 3 2 ack 40 ------- 0 3.1 1.0 16 45
r 0.866587 3 2 ack 40 ------- 0 3.1 1.0 15 42
+ 0.866587 2 1 ack 40 ------- 0 3.1 1.0 15 42
- 0.866587 2 1 ack 40 ------- 0 3.1 1.0 15 42
r 0.867333 1 2 tcp 1040 ------- 0 1.0 3.1 26 41
+ 0.867333 2 3 tcp 1040 ------- 0 1.0 3.1 26 41
r 0.867502 2 1 ack 40 ------- 0 3.1 1.0 14 39
+ 0.867502 1 2 tcp 1040 ------- 0 1.0 3.1 29 46
- 0.867502 1 2 tcp 1040 ------- 0 1.0 3.1 29 46
+ 0.867502 1 2 tcp 1040 ------- 0 1.0 3.1 30 47
- 0.871662 1 2 tcp 1040 ------- 0 1.0 3.1 30 47
r 0.872418 1 2 tcp 1040 ------- 0 1.0 3.1 27 43
+ 0.872418 2 3 tcp 1040 ------- 0 1.0 3.1 27 43
- 0.873964 2 3 tcp 1040 ------- 0 1.0 3.1 19 31
r 0.87472 2 3 tcp 1040 ------- 0 1.0 3.1 17 28
+ 0.87472 3 2 ack 40 ------- 0 3.1 1.0 17 48
- 0.87472 3 2 ack 40 ------- 0 3.1 1.0 17 48
r 0.875831 3 2 ack 40 ------- 0 3.1 1.0 16 45
+ 0.875831 2 1 ack 40 ------- 0 3.1 1.0 16 45
- 0.875831 2 1 ack 40 ------- 0 3.1 1.0 16 45
r 0.876578 1 2 tcp 1040 ------- 0 1.0 3.1 28 44
+ 0.876578 2 3 tcp 1040 ------- 0 1.0 3.1 28 44
r 0.876747 2 1 ack 40 ------- 0 3.1 1.0 15 42
+ 0.876747 1 2 tcp 1040 ------- 0 1.0 3.1 31 49
- 0.876747 1 2 tcp 1040 ------- 0 1.0 3.1 31 49
+ 0.876747 1 2 tcp 1040 ------- 0 1.0 3.1 32 50
- 0.880907 1 2 tcp 1040 ------- 0 1.0 3.1 32 50
r 0.881662 1 2 tcp 1040 ------- 0 1.0 3.1 29 46
+ 0.881662 2 3 tcp 1040 ------- 0 1.0 3.1 29 46
- 0.883209 2 3 tcp 1040 ------- 0 1.0 3.1 20 32
r 0.883964 2 3 tcp 1040 ------- 0 1.0 3.1 18 29
+ 0.883964 3 2 ack 40 ------- 0 3.1 1.0 18 51
- 0.883964 3 2 ack 40 ------- 0 3.1 1.0 18 51
r 0.885076 3 2 ack 40 ------- 0 3.1 1.0 17 48
+ 0.885076 2 1 ack 40 ------- 0 3.1 1.0 17 48
- 0.885076 2 1 ack 40 ------- 0 3.1 1.0 17 48
r 0.885822 1 2 tcp 1040 ------- 0 1.0 3.1 30 47
+ 0.885822 2 3 tcp 1040 ------- 0 1.0 3.1 30 47
r 0.885991 2 1 ack 40 ------- 0 3.1 1.0 16 45
+ 0.885991 1 2 tcp 1040 ------- 0 1.0 3.1 33 52
- 0.885991 1 2 tcp 1040 ------- 0 1.0 3.1 33 52
+ 0.885991 1 2 tcp 1040 ------- 0 1.0 3.1 34 53
- 0.890151 1 2 tcp 1040 ------- 0 1.0 3.1 34 53
r 0.890907 1 2 tcp 1040 ------- 0 1.0 3.1 31 49
+ 0.890907 2 3 tcp 1040 ------- 0 1.0 3.1 31 49
- 0.892453 2 3 tcp 1040 ------- 0 1.0 3.1 21 34
r 0.893209 2 3 tcp 1040 ------- 0 1.0 3.1 19 31
+ 0.893209 3 2 ack 40 ------- 0 3.1 1.0 19 54
- 0.893209 3 2 ack 40 ------- 0 3.1 1.0 19 54
r 0.89432 3 2 ack 40 ------- 0 3.1 1.0 18 51
+ 0.89432 2 1 ack 40 ------- 0 3.1 1.0 18 51
- 0.89432 2 1 ack 40 ------- 0 3.1 1.0 18 51
r 0.895067 1 2 tcp 1040 ------- 0 1.0 3.1 32 50
+ 0.895067 2 3 tcp 1040 ------- 0 1.0 3.1 32 50
r 0.895236 2 1 ack 40 ------- 0 3.1 1.0 17 48
+ 0.895236 1 2 tcp 1040 ------- 0 1.0 3.1 35 55
- 0.895236 1 2 tcp 1040 ------- 0 1.0 3.1 35 55
+ 0.895236 1 2 tcp 1040 ------- 0 1.0 3.1 36 56
- 0.899396 1 2 tcp 1040 ------- 0 1.0 3.1 36 56
r 0.900151 1 2 tcp 1040 ------- 0 1.0 3.1 33 52
+ 0.900151 2 3 tcp 1040 ------- 0 1.0 3.1 33 52
- 0.901698 2 3 tcp 1040 ------- 0 1.0 3.1 22 35
r 0.902453 2 3 tcp 1040 ------- 0 1.0 3.1 20 32
+ 0.902453 3 2 ack 40 ------- 0 3.1 1.0 20 57
- 0.902453 3 2 ack 40 ------- 0 3.1 1.0 20 57
r 0.903564 3 2 ack 40 ------- 0 3.1 1.0 19 54
+ 0.903564 2 1 ack 40 ------- 0 3.1 1.0 19 54
- 0.903564 2 1 ack 40 ------- 0 3.1 1.0 19 54
r 0.904311 1 2 tcp 1040 ------- 0 1.0 3.1 34 53
+ 0.904311 2 3 tcp 1040 ------- 0 1.0 3.1 34 53
r 0.90448 2 1 ack 40 ------- 0 3.1 1.0 18 51
+ 0.90448 1 2 tcp 1040 ------- 0 1.0 3.1 37 58
- 0.90448 1 2 tcp 1040 ------- 0 1.0 3.1 37 58
+ 0.90448 1 2 tcp 1040 ------- 0 1.0 3.1 38 59
- 0.90864 1 2 tcp 1040 ------- 0 1.0 3.1 38 59
r 0.909396 1 2 tcp 1040 ------- 0 1.0 3.1 35 55
+ 0.909396 2 3 tcp 1040 ------- 0 1.0 3.1 35 55
- 0.910942 2 3 tcp 1040 ------- 0 1.0 3.1 23 37
r 0.911698 2 3 tcp 1040 ------- 0 1.0 3.1 21 34
+ 0.911698 3 2 ack 40 ------- 0 3.1 1.0 21 60
- 0.911698 3 2 ack 40 ------- 0 3.1 1.0 21 60
r 0.912809 3 2 ack 40 ------- 0 3.1 1.0 20 57
+ 0.912809 2 1 ack 40 ------- 0 3.1 1.0 20 57
- 0.912809 2 1 ack 40 ------- 0 3.1 1.0 20 57
r 0.913556 1 2 tcp 1040 ------- 0 1.0 3.1 36 56
+ 0.913556 2 3 tcp 1040 ------- 0 1.0 3.1 36 56
r 0.913724 2 1 ack 40 ------- 0 3.1 1.0 19 54
+ 0.913724 1 2 tcp 1040 ------- 0 1.0 3.1 39 61
- 0.913724 1 2 tcp 1040 ------- 0 1.0 3.1 39 61
r 0.91864 1 2 tcp 1040 ------- 0 1.0 3.1 37 58
+ 0.91864 2 3 tcp 1040 ------- 0 1.0 3.1 37 58
- 0.920187 2 3 tcp 1040 ------- 0 1.0 3.1 24 38
r 0.920942 2 3 tcp 1040 ------- 0 1.0 3.1 22 35
+ 0.920942 3 2 ack 40 ------- 0 3.1 1.0 22 62
- 0.920942 3 2 ack 40 ------- 0 3.1 1.0 22 62
r 0.922053 3 2 ack 40 ------- 0 3.1 1.0 21 60
+ 0.922053 2 1 ack 40 ------- 0 3.1 1.0 21 60
- 0.922053 2 1 ack 40 ------- 0 3.1 1.0 21 60
r 0.9228 1 2 tcp 1040 ------- 0 1.0 3.1 38 59
+ 0.9228 2 3 tcp 1040 ------- 0 1.0 3.1 38 59
r 0.922969 2 1 ack 40 ------- 0 3.1 1.0 20 57
+ 0.922969 1 2 tcp 1040 ------- 0 1.0 3.1 40 63
- 0.922969 1 2 tcp 1040 ------- 0 1.0 3.1 40 63
r 0.927884 1 2 tcp 1040 ------- 0 1.0 3.1 39 61
+ 0.927884 2 3 tcp 1040 ------- 0 1.0 3.1 39 61
- 0.929431 2 3 tcp 1040 ------- 0 1.0 3.1 25 40
r 0.930187 2 3 tcp 1040 ------- 0 1.0 3.1 23 37
+ 0.930187 3 2 ack 40 ------- 0 3.1 1.0 23 64
- 0.930187 3 2 ack 40 ------- 0 3.1 1.0 23 64
r 0.931298 3 2 ack 40 ------- 0 3.1 1.0 22 62
+ 0.931298 2 1 ack 40 ------- 0 3.1 1.0 22 62
- 0.931298 2 1 ack 40 ------- 0 3.1 1.0 22 62
r 0.932213 2 1 ack 40 ------- 0 3.1 1.0 21 60
+ 0.932213 1 2 tcp 1040 ------- 0 1.0 3.1 41 65
- 0.932213 1 2 tcp 1040 ------- 0 1.0 3.1 41 65
r 0.937129 1 2 tcp 1040 ------- 0 1.0 3.1 40 63
+ 0.937129 2 3 tcp 1040 ------- 0 1.0 3.1 40 63
- 0.938676 2 3 tcp 1040 ------- 0 1.0 3.1 26 41
r 0.939431 2 3 tcp 1040 ------- 0 1.0 3.1 24 38
+ 0.939431 3 2 ack 40 ------- 0 3.1 1.0 24 66
- 0.939431 3 2 ack 40 ------- 0 3.1 1.0 24 66
r 0.940542 3 2 ack 40 ------- 0 3.1 1.0 23 64
+ 0.940542 2 1 ack 40 ------- 0 3.1 1.0 23 64
- 0.940542 2 1 ack 40 ------- 0 3.1 1.0 23 64
r 0.941458 2 1 ack 40 ------- 0 3.1 1.0 22 62
+ 0.941458 1 2 tcp 1040 ------- 0 1.0 3.1 42 67
- 0.941458 1 2 tcp 1040 ------- 0 1.0 3.1 42 67
r 0.946373 1 2 tcp 1040 ------- 0 1.0 3.1 41 65
+ 0.946373 2 3 tcp 1040 ------- 0 1.0 3.1 41 65
- 0.94792 2 3 tcp 1040 ------- 0 1.0 3.1 27 43
r 0.948676 2 3 tcp 1040 ------- 0 1.0 3.1 25 40
+ 0.948676 3 2 ack 40 ------- 0 3.1 1.0 25 68
- 0.948676 3 2 ack 40 ------- 0 3.1 1.0 25 68
r 0.949787 3 2 ack 40 ------- 0 3.1 1.0 24 66
+ 0.949787 2 1 ack 40 ------- 0 3.1 1.0 24 66
- 0.949787 2 1 ack 40 ------- 0 3.1 1.0 24 66
r 0.950702 2 1 ack 40 ------- 0 3.1 1.0 23 64
+ 0.950702 1 2 tcp 1040 ------- 0 1.0 3.1 43 69
- 0.950702 1 2 tcp 1040 ------- 0 1.0 3.1 43 69
r 0.955618 1 2 tcp 1040 ------- 0 1.0 3.1 42 67
+ 0.955618 2 3 tcp 1040 ------- 0 1.0 3.1 42 67
- 0.957164 2 3 tcp 1040 ------- 0 1.0 3.1 28 44
r 0.95792 2 3 tcp 1040 ------- 0 1.0 3.1 26 41
+ 0.95792 3 2 ack 40 ------- 0 3.1 1.0 26 70
- 0.95792 3 2 ack 40 ------- 0 3.1 1.0 26 70
r 0.959031 3 2 ack 40 ------- 0 3.1 1.0 25 68
+ 0.959031 2 1 ack 40 ------- 0 3.1 1.0 25 68
- 0.959031 2 1 ack 40 ------- 0 3.1 1.0 25 68
r 0.959947 2 1 ack 40 ------- 0 3.1 1.0 24 66
+ 0.959947 1 2 tcp 1040 ------- 0 1.0 3.1 44 71
- 0.959947 1 2 tcp 1040 ------- 0 1.0 3.1 44 71
r 0.964862 1 2 tcp 1040 ------- 0 1.0 3.1 43 69
+ 0.964862 2 3 tcp 1040 ------- 0 1.0 3.1 43 69
- 0.966409 2 3 tcp 1040 ------- 0 1.0 3.1 29 46
r 0.967164 2 3 tcp 1040 ------- 0 1.0 3.1 27 43
+ 0.967164 3 2 ack 40 ------- 0 3.1 1.0 27 72
- 0.967164 3 2 ack 40 ------- 0 3.1 1.0 27 72
r 0.968276 3 2 ack 40 ------- 0 3.1 1.0 26 70
+ 0.968276 2 1 ack 40 ------- 0 3.1 1.0 26 70
- 0.968276 2 1 ack 40 ------- 0 3.1 1.0 26 70
r 0.969191 2 1 ack 40 ------- 0 3.1 1.0 25 68
+ 0.969191 1 2 tcp 1040 ------- 0 1.0 3.1 45 73
- 0.969191 1 2 tcp 1040 ------- 0 1.0 3.1 45 73
r 0.974107 1 2 tcp 1040 ------- 0 1.0 3.1 44 71
+ 0.974107 2 3 tcp 1040 ------- 0 1.0 3.1 44 71
- 0.975653 2 3 tcp 1040 ------- 0 1.0 3.1 30 47
r 0.976409 2 3 tcp 1040 ------- 0 1.0 3.1 28 44
+ 0.976409 3 2 ack 40 ------- 0 3.1 1.0 28 74
- 0.976409 3 2 ack 40 ------- 0 3.1 1.0 28 74
r 0.97752 3 2 ack 40 ------- 0 3.1 1.0 27 72
+ 0.97752 2 1 ack 40 ------- 0 3.1 1.0 27 72
- 0.97752 2 1 ack 40 ------- 0 3.1 1.0 27 72
r 0.978436 2 1 ack 40 ------- 0 3.1 1.0 26 70
+ 0.978436 1 2 tcp 1040 ------- 0 1.0 3.1 46 75
- 0.978436 1 2 tcp 1040 ------- 0 1.0 3.1 46 75
r 0.983351 1 2 tcp 1040 ------- 0 1.0 3.1 45 73
+ 0.983351 2 3 tcp 1040 ------- 0 1.0 3.1 45 73
- 0.984898 2 3 tcp 1040 ------- 0 1.0 3.1 31 49
r 0.985653 2 3 tcp 1040 ------- 0 1.0 3.1 29 46
+ 0.985653 3 2 ack 40 ------- 0 3.1 1.0 29 76
- 0.985653 3 2 ack 40 ------- 0 3.1 1.0 29 76
r 0.986764 3 2 ack 40 ------- 0 3.1 1.0 28 74
+ 0.986764 2 1 ack 40 ------- 0 3.1 1.0 28 74
- 0.986764 2 1 ack 40 ------- 0 3.1 1.0 28 74
r 0.98768 2 1 ack 40 ------- 0 3.1 1.0 27 72
+ 0.98768 1 2 tcp 1040 ------- 0 1.0 3.1 47 77
- 0.98768 1 2 tcp 1040 ------- 0 1.0 3.1 47 77
r 0.992596 1 2 tcp 1040 ------- 0 1.0 3.1 46 75
+ 0.992596 2 3 tcp 1040 ------- 0 1.0 3.1 46 75
- 0.994142 2 3 tcp 1040 ------- 0 1.0 3.1 32 50
r 0.994898 2 3 tcp 1040 ------- 0 1.0 3.1 30 47
+ 0.994898 3 2 ack 40 ------- 0 3.1 1.0 30 78
- 0.994898 3 2 ack 40 ------- 0 3.1 1.0 30 78
r 0.996009 3 2 ack 40 ------- 0 3.1 1.0 29 76
+ 0.996009 2 1 ack 40 ------- 0 3.1 1.0 29 76
- 0.996009 2 1 ack 40 ------- 0 3.1 1.0 29 76
r 0.996924 2 1 ack 40 ------- 0 3.1 1.0 28 74
+ 0.996924 1 2 tcp 1040 ------- 0 1.0 3.1 48 79
- 0.996924 1 2 tcp 1040 ------- 0 1.0 3.1 48 79
r 1.00184 1 2 tcp 1040 ------- 0 1.0 3.1 47 77
+ 1.00184 2 3 tcp 1040 ------- 0 1.0 3.1 47 77
- 1.003387 2 3 tcp 1040 ------- 0 1.0 3.1 33 52
r 1.004142 2 3 tcp 1040 ------- 0 1.0 3.1 31 49
+ 1.004142 3 2 ack 40 ------- 0 3.1 1.0 31 80
- 1.004142 3 2 ack 40 ------- 0 3.1 1.0 31 80
r 1.005253 3 2 ack 40 ------- 0 3.1 1.0 30 78
+ 1.005253 2 1 ack 40 ------- 0 3.1 1.0 30 78
- 1.005253 2 1 ack 40 ------- 0 3.1 1.0 30 78
r 1.006169 2 1 ack 40 ------- 0 3.1 1.0 29 76
+ 1.006169 1 2 tcp 1040 ------- 0 1.0 3.1 49 81
- 1.006169 1 2 tcp 1040 ------- 0 1.0 3.1 49 81
r 1.011084 1 2 tcp 1040 ------- 0 1.0 3.1 48 79
+ 1.011084 2 3 tcp 1040 ------- 0 1.0 3.1 48 79
- 1.012631 2 3 tcp 1040 ------- 0 1.0 3.1 34 53
r 1.013387 2 3 tcp 1040 ------- 0 1.0 3.1 32 50
+ 1.013387 3 2 ack 40 ------- 0 3.1 1.0 32 82
- 1.013387 3 2 ack 40 ------- 0 3.1 1.0 32 82
r 1.014498 3 2 ack 40 ------- 0 3.1 1.0 31 80
+ 1.014498 2 1 ack 40 ------- 0 3.1 1.0 31 80
- 1.014498 2 1 ack 40 ------- 0 3.1 1.0 31 80
r 1.015413 2 1 ack 40 ------- 0 3.1 1.0 30 78
+ 1.015413 1 2 tcp 1040 ------- 0 1.0 3.1 50 83
- 1.015413 1 2 tcp 1040 ------- 0 1.0 3.1 50 83
r 1.020329 1 2 tcp 1040 ------- 0 1.0 3.1 49 81
+ 1.020329 2 3 tcp 1040 ------- 0 1.0 3.1 49 81
- 1.021876 2 3 tcp 1040 ------- 0 1.0 3.1 35 55
r 1.022631 2 3 tcp 1040 ------- 0 1.0 3.1 33 52
+ 1.022631 3 2 ack 40 ------- 0 3.1 1.0 33 84
- 1.022631 3 2 ack 40 ------- 0 3.1 1.0 33 84
r 1.023742 3 2 ack 40 ------- 0 3.1 1.0 32 82
+ 1.023742 2 1 ack 40 ------- 0 3.1 1.0 32 82
- 1.023742 2 1 ack 40 ------- 0 3.1 1.0 32 82
r 1.024658 2 1 ack 40 ------- 0 3.1 1.0 31 80
+ 1.024658 1 2 tcp 1040 ------- 0 1.0 3.1 51 85
- 1.024658 1 2 tcp 1040 ------- 0 1.0 3.1 51 85
r 1.029573 1 2 tcp 1040 ------- 0 1.0 3.1 50 83
+ 1.029573 2 3 tcp 1040 ------- 0 1.0 3.1 50 83
- 1.03112 2 3 tcp 1040 ------- 0 1.0 3.1 36 56
r 1.031876 2 3 tcp 1040 ------- 0 1.0 3.1 34 53
+ 1.031876 3 2 ack 40 ------- 0 3.1 1.0 34 86
- 1.031876 3 2 ack 40 ------- 0 3.1 1.0 34 86
r 1.032987 3 2 ack 40 ------- 0 3.1 1.0 33 84
+ 1.032987 2 1 ack 40 ------- 0 3.1 1.0 33 84
- 1.032987 2 1 ack 40 ------- 0 3.1 1.0 33 84
r 1.033902 2 1 ack 40 ------- 0 3.1 1.0 32 82
+ 1.033902 1 2 tcp 1040 ------- 0 1.0 3.1 52 87
- 1.033902 1 2 tcp 1040 ------- 0 1.0 3.1 52 87
r 1.038818 1 2 tcp 1040 ------- 0 1.0 3.1 51 85
+ 1.038818 2 3 tcp 1040 ------- 0 1.0 3.1 51 85
- 1.040364 2 3 tcp 1040 ------- 0 1.0 3.1 37 58
r 1.04112 2 3 tcp 1040 ------- 0 1.0 3.1 35 55
+ 1.04112 3 2 ack 40 ------- 0 3.1 1.0 35 88
- 1.04112 3 2 ack 40 ------- 0 3.1 1.0 35 88
r 1.042231 3 2 ack 40 ------- 0 3.1 1.0 34 86
+ 1.042231 2 1 ack 40 ------- 0 3.1 1.0 34 86
- 1.042231 2 1 ack 40 ------- 0 3.1 1.0 34 86
r 1.043147 2 1 ack 40 ------- 0 3.1 1.0 33 84
+ 1.043147 1 2 tcp 1040 ------- 0 1.0 3.1 53 89
- 1.043147 1 2 tcp 1040 ------- 0 1.0 3.1 53 89
r 1.048062 1 2 tcp 1040 ------- 0 1.0 3.1 52 87
+ 1.048062 2 3 tcp 1040 ------- 0 1.0 3.1 52 87
- 1.049609 2 3 tcp 1040 ------- 0 1.0 3.1 38 59
r 1.050364 2 3 tcp 1040 ------- 0 1.0 3.1 36 56
+ 1.050364 3 2 ack 40 ------- 0 3.1 1.0 36 90
- 1.050364 3 2 ack 40 ------- 0 3.1 1.0 36 90
r 1.051476 3 2 ack 40 ------- 0 3.1 1.0 35 88
+ 1.051476 2 1 ack 40 ------- 0 3.1 1.0 35 88
- 1.051476 2 1 ack 40 ------- 0 3.1 1.0 35 88
r 1.052391 2 1 ack 40 ------- 0 3.1 1.0 34 86
+ 1.052391 1 2 tcp 1040 ------- 0 1.0 3.1 54 91
- 1.052391 1 2 tcp 1040 ------- 0 1.0 3.1 54 91
r 1.057307 1 2 tcp 1040 ------- 0 1.0 3.1 53 89
+ 1.057307 2 3 tcp 1040 ------- 0 1.0 3.1 53 89
- 1.058853 2 3 tcp 1040 ------- 0 1.0 3.1 39 61
r 1.059609 2 3 tcp 1040 ------- 0 1.0 3.1 37 58
+ 1.059609 3 2 ack 40 ------- 0 3.1 1.0 37 92
- 1.059609 3 2 ack 40 ------- 0 3.1 1.0 37 92
r 1.06072 3 2 ack 40 ------- 0 3.1 1.0 36 90
+ 1.06072 2 1 ack 40 ------- 0 3.1 1.0 36 90
- 1.06072 2 1 ack 40 ------- 0 3.1 1.0 36 90
r 1.061636 2 1 ack 40 ------- 0 3.1 1.0 35 88
+ 1.061636 1 2 tcp 1040 ------- 0 1.0 3.1 55 93
- 1.061636 1 2 tcp 1040 ------- 0 1.0 3.1 55 93
r 1.066551 1 2 tcp 1040 ------- 0 1.0 3.1 54 91
+ 1.066551 2 3 tcp 1040 ------- 0 1.0 3.1 54 91
- 1.068098 2 3 tcp 1040 ------- 0 1.0 3.1 40 63
r 1.068853 2 3 tcp 1040 ------- 0 1.0 3.1 38 59
+ 1.068853 3 2 ack 40 ------- 0 3.1 1.0 38 94
- 1.068853 3 2 ack 40 ------- 0 3.1 1.0 38 94
r 1.069964 3 2 ack 40 ------- 0 3.1 1.0 37 92
+ 1.069964 2 1 ack 40 ------- 0 3.1 1.0 37 92
- 1.069964 2 1 ack 40 ------- 0 3.1 1.0 37 92
r 1.07088 2 1 ack 40 ------- 0 3.1 1.0 36 90
+ 1.07088 1 2 tcp 1040 ------- 0 1.0 3.1 56 95
- 1.07088 1 2 tcp 1040 ------- 0 1.0 3.1 56 95
r 1.075796 1 2 tcp 1040 ------- 0 1.0 3.1 55 93
+ 1.075796 2 3 tcp 1040 ------- 0 1.0 3.1 55 93
- 1.077342 2 3 tcp 1040 ------- 0 1.0 3.1 41 65
r 1.078098 2 3 tcp 1040 ------- 0 1.0 3.1 39 61
+ 1.078098 3 2 ack 40 ------- 0 3.1 1.0 39 96
- 1.078098 3 2 ack 40 ------- 0 3.1 1.0 39 96
r 1.079209 3 2 ack 40 ------- 0 3.1 1.0 38 94
+ 1.079209 2 1 ack 40 ------- 0 3.1 1.0 38 94
- 1.079209 2 1 ack 40 ------- 0 3.1 1.0 38 94
r 1.080124 2 1 ack 40 ------- 0 3.1 1.0 37 92
+ 1.080124 1 2 tcp 1040 ------- 0 1.0 3.1 57 97
- 1.080124 1 2 tcp 1040 ------- 0 1.0 3.1 57 97
r 1.08504 1 2 tcp 1040 ------- 0 1.0 3.1 56 95
+ 1.08504 2 3 tcp 1040 ------- 0 1.0 3.1 56 95
- 1.086587 2 3 tcp 1040 ------- 0 1.0 3.1 42 67
r 1.087342 2 3 tcp 1040 ------- 0 1.0 3.1 40 63
+ 1.087342 3 2 ack 40 ------- 0 3.1 1.0 40 98
- 1.087342 3 2 ack 40 ------- 0 3.1 1.0 40 98
r 1.088453 3 2 ack 40 ------- 0 3.1 1.0 39 96
+ 1.088453 2 1 ack 40 ------- 0 3.1 1.0 39 96
- 1.088453 2 1 ack 40 ------- 0 3.1 1.0 39 96
r 1.089369 2 1 ack 40 ------- 0 3.1 1.0 38 94
+ 1.089369 1 2 tcp 1040 ------- 0 1.0 3.1 58 99
- 1.089369 1 2 tcp 1040 ------- 0 1.0 3.1 58 99
r 1.094284 1 2 tcp 1040 ------- 0 1.0 3.1 57 97
+ 1.094284 2 3 tcp 1040 ------- 0 1.0 3.1 57 97
- 1.095831 2 3 tcp 1040 ------- 0 1.0 3.1 43 69
r 1.096587 2 3 tcp 1040 ------- 0 1.0 3.1 41 65
+ 1.096587 3 2 ack 40 ------- 0 3.1 1.0 41 100
- 1.096587 3 2 ack 40 ------- 0 3.1 1.0 41 100
r 1.097698 3 2 ack 40 ------- 0 3.1 1.0 40 98
+ 1.097698 2 1 ack 40 ------- 0 3.1 1.0 40 98
- 1.097698 2 1 ack 40 ------- 0 3.1 1.0 40 98
r 1.098613 2 1 ack 40 ------- 0 3.1 1.0 39 96
+ 1.098613 1 2 tcp 1040 ------- 0 1.0 3.1 59 101
- 1.098613 1 2 tcp 1040 ------- 0 1.0 3.1 59 101
r 1.103529 1 2 tcp 1040 ------- 0 1.0 3.1 58 99
+ 1.103529 2 3 tcp 1040 ------- 0 1.0 3.1 58 99
- 1.105076 2 3 tcp 1040 ------- 0 1.0 3.1 44 71
r 1.105831 2 3 tcp 1040 ------- 0 1.0 3.1 42 67
+ 1.105831 3 2 ack 40 ------- 0 3.1 1.0 42 102
- 1.105831 3 2 ack 40 ------- 0 3.1 1.0 42 102
r 1.106942 3 2 ack 40 ------- 0 3.1 1.0 41 100
+ 1.106942 2 1 ack 40 ------- 0 3.1 1.0 41 100
- 1.106942 2 1 ack 40 ------- 0 3.1 1.0 41 100
r 1.107858 2 1 ack 40 ------- 0 3.1 1.0 40 98
+ 1.107858 1 2 tcp 1040 ------- 0 1.0 3.1 60 103
- 1.107858 1 2 tcp 1040 ------- 0 1.0 3.1 60 103
r 1.112773 1 2 tcp 1040 ------- 0 1.0 3.1 59 101
+ 1.112773 2 3 tcp 1040 ------- 0 1.0 3.1 59 101
- 1.11432 2 3 tcp 1040 ------- 0 1.0 3.1 45 73
r 1.115076 2 3 tcp 1040 ------- 0 1.0 3.1 43 69
+ 1.115076 3 2 ack 40 ------- 0 3.1 1.0 43 104
- 1.115076 3 2 ack 40 ------- 0 3.1 1.0 43 104
r 1.116187 3 2 ack 40 ------- 0 3.1 1.0 42 102
+ 1.116187 2 1 ack 40 ------- 0 3.1 1.0 42 102
- 1.116187 2 1 ack 40 ------- 0 3.1 1.0 42 102
r 1.117102 2 1 ack 40 ------- 0 3.1 1.0 41 100
+ 1.117102 1 2 tcp 1040 ------- 0 1.0 3.1 61 105
- 1.117102 1 2 tcp 1040 ------- 0 1.0 3.1 61 105
r 1.122018 1 2 tcp 1040 ------- 0 1.0 3.1 60 103
+ 1.122018 2 3 tcp 1040 ------- 0 1.0 3.1 60 103
- 1.123564 2 3 tcp 1040 ------- 0 1.0 3.1 46 75
r 1.12432 2 3 tcp 1040 ------- 0 1.0 3.1 44 71
+ 1.12432 3 2 ack 40 ------- 0 3.1 1.0 44 106
- 1.12432 3 2 ack 40 ------- 0 3.1 1.0 44 106
r 1.125431 3 2 ack 40 ------- 0 3.1 1.0 43 104
+ 1.125431 2 1 ack 40 ------- 0 3.1 1.0 43 104
- 1.125431 2 1 ack 40 ------- 0 3.1 1.0 43 104
r 1.126347 2 1 ack 40 ------- 0 3.1 1.0 42 102
+ 1.126347 1 2 tcp 1040 ------- 0 1.0 3.1 62 107
- 1.126347 1 2 tcp 1040 ------- 0 1.0 3.1 62 107
r 1.131262 1 2 tcp 1040 ------- 0 1.0 3.1 61 105
+ 1.131262 2 3 tcp 1040 ------- 0 1.0 3.1 61 105
- 1.132809 2 3 tcp 1040 ------- 0 1.0 3.1 47 77
r 1.133564 2 3 tcp 1040 ------- 0 1.0 3.1 45 73
+ 1.133564 3 2 ack 40 ------- 0 3.1 1.0 45 108
- 1.133564 3 2 ack 40 ------- 0 3.1 1.0 45 108
r 1.134676 3 2 ack 40 ------- 0 3.1 1.0 44 106
+ 1.134676 2 1 ack 40 ------- 0 3.1 1.0 44 106
- 1.134676 2 1 ack 40 ------- 0 3.1 1.0 44 106
r 1.135591 2 1 ack 40 ------- 0 3.1 1.0 43 104
+ 1.135591 1 2 tcp 1040 ------- 0 1.0 3.1 63 109
- 1.135591 1 2 tcp 1040 ------- 0 1.0 3.1 63 109
r 1.140507 1 2 tcp 1040 ------- 0 1.0 3.1 62 107
+ 1.140507 2 3 tcp 1040 ------- 0 1.0 3.1 62 107
- 1.142053 2 3 tcp 1040 ------- 0 1.0 3.1 48 79
r 1.142809 2 3 tcp 1040 ------- 0 1.0 3.1 46 75
+ 1.142809 3 2 ack 40 ------- 0 3.1 1.0 46 110
- 1.142809 3 2 ack 40 ------- 0 3.1 1.0 46 110
r 1.14392 3 2 ack 40 ------- 0 3.1 1.0 45 108
+ 1.14392 2 1 ack 40 ------- 0 3.1 1.0 45 108
- 1.14392 2 1 ack 40 ------- 0 3.1 1.0 45 108
r 1.144836 2 1 ack 40 ------- 0 3.1 1.0 44 106
+ 1.144836 1 2 tcp 1040 ------- 0 1.0 3.1 64 111
- 1.144836 1 2 tcp 1040 ------- 0 1.0 3.1 64 111
r 1.149751 1 2 tcp 1040 ------- 0 1.0 3.1 63 109
+ 1.149751 2 3 tcp 1040 ------- 0 1.0 3.1 63 109
- 1.151298 2 3 tcp 1040 ------- 0 1.0 3.1 49 81
r 1.152053 2 3 tcp 1040 ------- 0 1.0 3.1 47 77
+ 1.152053 3 2 ack 40 ------- 0 3.1 1.0 47 112
- 1.152053 3 2 ack 40 ------- 0 3.1 1.0 47 112
r 1.153164 3 2 ack 40 ------- 0 3.1 1.0 46 110
+ 1.153164 2 1 ack 40 ------- 0 3.1 1.0 46 110
- 1.153164 2 1 ack 40 ------- 0 3.1 1.0 46 110
r 1.15408 2 1 ack 40 ------- 0 3.1 1.0 45 108
+ 1.15408 1 2 tcp 1040 ------- 0 1.0 3.1 65 113
- 1.15408 1 2 tcp 1040 ------- 0 1.0 3.1 65 113