+ 0.5 0 1 cbr 512 ------- 0 0.0 2.0 0 0
- 0.5 0 1 cbr 512 ------- 0 0.0 2.0 0 0
+ 0.505 0 1 cbr 512 ------- 0 0.0 2.0 1 1
- 0.508192 0 1 cbr 512 ------- 0 0.0 2.0 1 1
+ 0.51 0 1 cbr 512 ------- 0 0.0 2.0 2 2
+ 0.515 0 1 cbr 512 ------- 0 0.0 2.0 3 3
- 0.516384 0 1 cbr 512 ------- 0 0.0 2.0 2 2
+ 0.52 0 1 cbr 512 ------- 0 0.0 2.0 4 4
- 0.524576 0 1 cbr 512 ------- 0 0.0 2.0 3 3
+ 0.525 0 1 cbr 512 ------- 0 0.0 2.0 5 5
+ 0.53 0 1 cbr 512 ------- 0 0.0 2.0 6 6
- 0.532768 0 1 cbr 512 ------- 0 0.0 2.0 4 4
+ 0.535 0 1 cbr 512 ------- 0 0.0 2.0 7 7
+ 0.54 0 1 cbr 512 ------- 0 0.0 2.0 8 8
- 0.54096 0 1 cbr 512 ------- 0 0.0 2.0 5 5
+ 0.545 0 1 cbr 512 ------- 0 0.0 2.0 9 9
r 0.548192 0 1 cbr 512 ------- 0 0.0 2.0 0 0
+ 0.548192 1 2 cbr 512 ------- 0 0.0 2.0 0 0
- 0.548192 1 2 cbr 512 ------- 0 0.0 2.0 0 0
- 0.549152 0 1 cbr 512 ------- 0 0.0 2.0 6 6
+ 0.55 0 1 cbr 512 ------- 0 0.0 2.0 10 10
+ 0.555 0 1 cbr 512 ------- 0 0.0 2.0 11 11
r 0.556384 0 1 cbr 512 ------- 0 0.0 2.0 1 1
+ 0.556384 1 2 cbr 512 ------- 0 0.0 2.0 1 1
- 0.556384 1 2 cbr 512 ------- 0 0.0 2.0 1 1
- 0.557344 0 1 cbr 512 ------- 0 0.0 2.0 7 7
+ 0.56 0 1 cbr 512 ------- 0 0.0 2.0 12 12
r 0.564576 0 1 cbr 512 ------- 0 0.0 2.0 2 2
+ 0.564576 1 2 cbr 512 ------- 0 0.0 2.0 2 2
- 0.564576 1 2 cbr 512 ------- 0 0.0 2.0 2 2
+ 0.565 0 1 cbr 512 ------- 0 0.0 2.0 13 13
- 0.565536 0 1 cbr 512 ------- 0 0.0 2.0 8 8
+ 0.57 0 1 cbr 512 ------- 0 0.0 2.0 14 14
r 0.572768 0 1 cbr 512 ------- 0 0.0 2.0 3 3
+ 0.572768 1 2 cbr 512 ------- 0 0.0 2.0 3 3
- 0.572768 1 2 cbr 512 ------- 0 0.0 2.0 3 3
- 0.573728 0 1 cbr 512 ------- 0 0.0 2.0 9 9
+ 0.575 0 1 cbr 512 ------- 0 0.0 2.0 15 15
+ 0.58 0 1 cbr 512 ------- 0 0.0 2.0 16 16
r 0.58096 0 1 cbr 512 ------- 0 0.0 2.0 4 4
+ 0.58096 1 2 cbr 512 ------- 0 0.0 2.0 4 4
- 0.58096 1 2 cbr 512 ------- 0 0.0 2.0 4 4
- 0.58192 0 1 cbr 512 ------- 0 0.0 2.0 10 10
+ 0.585 0 1 cbr 512 ------- 0 0.0 2.0 17 17
r 0.589152 0 1 cbr 512 ------- 0 0.0 2.0 5 5
+ 0.589152 1 2 cbr 512 ------- 0 0.0 2.0 5 5
- 0.589152 1 2 cbr 512 ------- 0 0.0 2.0 5 5
+ 0.59 0 1 cbr 512 ------- 0 0.0 2.0 18 18
- 0.590112 0 1 cbr 512 ------- 0 0.0 2.0 11 11
+ 0.595 0 1 cbr 512 ------- 0 0.0 2.0 19 19
r 0.596384 1 2 cbr 512 ------- 0 0.0 2.0 0 0
r 0.597344 0 1 cbr 512 ------- 0 0.0 2.0 6 6
+ 0.597344 1 2 cbr 512 ------- 0 0.0 2.0 6 6
- 0.597344 1 2 cbr 512 ------- 0 0.0 2.0 6 6
- 0.598304 0 1 cbr 512 ------- 0 0.0 2.0 12 12
+ 0.6 0 1 cbr 512 ------- 0 0.0 2.0 20 20
r 0.604576 1 2 cbr 512 ------- 0 0.0 2.0 1 1
+ 0.605 0 1 cbr 512 ------- 0 0.0 2.0 21 21
r 0.605536 0 1 cbr 512 ------- 0 0.0 2.0 7 7
+ 0.605536 1 2 cbr 512 ------- 0 0.0 2.0 7 7
- 0.605536 1 2 cbr 512 ------- 0 0.0 2.0 7 7
- 0.606496 0 1 cbr 512 ------- 0 0.0 2.0 13 13
+ 0.61 0 1 cbr 512 ------- 0 0.0 2.0 22 22
r 0.612768 1 2 cbr 512 ------- 0 0.0 2.0 2 2
r 0.613728 0 1 cbr 512 ------- 0 0.0 2.0 8 8
+ 0.613728 1 2 cbr 512 ------- 0 0.0 2.0 8 8
- 0.613728 1 2 cbr 512 ------- 0 0.0 2.0 8 8
- 0.614688 0 1 cbr 512 ------- 0 0.0 2.0 14 14
+ 0.615 0 1 cbr 512 ------- 0 0.0 2.0 23 23
+ 0.62 0 1 cbr 512 ------- 0 0.0 2.0 24 24
d 0.62 0 1 cbr 512 ------- 0 0.0 2.0 24 24
r 0.62096 1 2 cbr 512 ------- 0 0.0 2.0 3 3
r 0.62192 0 1 cbr 512 ------- 0 0.0 2.0 9 9
+ 0.62192 1 2 cbr 512 ------- 0 0.0 2.0 9 9
- 0.62192 1 2 cbr 512 ------- 0 0.0 2.0 9 9
- 0.62288 0 1 cbr 512 ------- 0 0.0 2.0 15 15
+ 0.625 0 1 cbr 512 ------- 0 0.0 2.0 25 25
r 0.629152 1 2 cbr 512 ------- 0 0.0 2.0 4 4
+ 0.63 0 1 cbr 512 ------- 0 0.0 2.0 26 26
d 0.63 0 1 cbr 512 ------- 0 0.0 2.0 26 26
r 0.630112 0 1 cbr 512 ------- 0 0.0 2.0 10 10
+ 0.630112 1 2 cbr 512 ------- 0 0.0 2.0 10 10
- 0.630112 1 2 cbr 512 ------- 0 0.0 2.0 10 10
- 0.631072 0 1 cbr 512 ------- 0 0.0 2.0 16 16
+ 0.635 0 1 cbr 512 ------- 0 0.0 2.0 27 27
r 0.637344 1 2 cbr 512 ------- 0 0.0 2.0 5 5
r 0.638304 0 1 cbr 512 ------- 0 0.0 2.0 11 11
+ 0.638304 1 2 cbr 512 ------- 0 0.0 2.0 11 11
- 0.638304 1 2 cbr 512 ------- 0 0.0 2.0 11 11
- 0.639264 0 1 cbr 512 ------- 0 0.0 2.0 17 17
+ 0.64 0 1 cbr 512 ------- 0 0.0 2.0 28 28
+ 0.645 0 1 cbr 512 ------- 0 0.0 2.0 29 29
d 0.645 0 1 cbr 512 ------- 0 0.0 2.0 29 29
r 0.645536 1 2 cbr 512 ------- 0 0.0 2.0 6 6
r 0.646496 0 1 cbr 512 ------- 0 0.0 2.0 12 12
+ 0.646496 1 2 cbr 512 ------- 0 0.0 2.0 12 12
- 0.646496 1 2 cbr 512 ------- 0 0.0 2.0 12 12
- 0.647456 0 1 cbr 512 ------- 0 0.0 2.0 18 18
+ 0.65 0 1 cbr 512 ------- 0 0.0 2.0 30 30
r 0.653728 1 2 cbr 512 ------- 0 0.0 2.0 7 7
r 0.654688 0 1 cbr 512 ------- 0 0.0 2.0 13 13
+ 0.654688 1 2 cbr 512 ------- 0 0.0 2.0 13 13
- 0.654688 1 2 cbr 512 ------- 0 0.0 2.0 13 13
+ 0.655 0 1 cbr 512 ------- 0 0.0 2.0 31 31
d 0.655 0 1 cbr 512 ------- 0 0.0 2.0 31 31
- 0.655648 0 1 cbr 512 ------- 0 0.0 2.0 19 19
+ 0.66 0 1 cbr 512 ------- 0 0.0 2.0 32 32
r 0.66192 1 2 cbr 512 ------- 0 0.0 2.0 8 8
r 0.66288 0 1 cbr 512 ------- 0 0.0 2.0 14 14
+ 0.66288 1 2 cbr 512 ------- 0 0.0 2.0 14 14
- 0.66288 1 2 cbr 512 ------- 0 0.0 2.0 14 14
- 0.66384 0 1 cbr 512 ------- 0 0.0 2.0 20 20
+ 0.665 0 1 cbr 512 ------- 0 0.0 2.0 33 33
+ 0.67 0 1 cbr 512 ------- 0 0.0 2.0 34 34
d 0.67 0 1 cbr 512 ------- 0 0.0 2.0 34 34
r 0.670112 1 2 cbr 512 ------- 0 0.0 2.0 9 9
r 0.671072 0 1 cbr 512 ------- 0 0.0 2.0 15 15
+ 0.671072 1 2 cbr 512 ------- 0 0.0 2.0 15 15
- 0.671072 1 2 cbr 512 ------- 0 0.0 2.0 15 15
- 0.672032 0 1 cbr 512 ------- 0 0.0 2.0 21 21
+ 0.675 0 1 cbr 512 ------- 0 0.0 2.0 35 35
r 0.678304 1 2 cbr 512 ------- 0 0.0 2.0 10 10
r 0.679264 0 1 cbr 512 ------- 0 0.0 2.0 16 16
+ 0.679264 1 2 cbr 512 ------- 0 0.0 2.0 16 16
- 0.679264 1 2 cbr 512 ------- 0 0.0 2.0 16 16
+ 0.68 0 1 cbr 512 ------- 0 0.0 2.0 36 36
d 0.68 0 1 cbr 512 ------- 0 0.0 2.0 36 36
- 0.680224 0 1 cbr 512 ------- 0 0.0 2.0 22 22
+ 0.685 0 1 cbr 512 ------- 0 0.0 2.0 37 37
r 0.686496 1 2 cbr 512 ------- 0 0.0 2.0 11 11
r 0.687456 0 1 cbr 512 ------- 0 0.0 2.0 17 17
+ 0.687456 1 2 cbr 512 ------- 0 0.0 2.0 17 17
- 0.687456 1 2 cbr 512 ------- 0 0.0 2.0 17 17
- 0.688416 0 1 cbr 512 ------- 0 0.0 2.0 23 23
+ 0.69 0 1 cbr 512 ------- 0 0.0 2.0 38 38
r 0.694688 1 2 cbr 512 ------- 0 0.0 2.0 12 12
+ 0.695 0 1 cbr 512 ------- 0 0.0 2.0 39 39
d 0.695 0 1 cbr 512 ------- 0 0.0 2.0 39 39
r 0.695648 0 1 cbr 512 ------- 0 0.0 2.0 18 18
+ 0.695648 1 2 cbr 512 ------- 0 0.0 2.0 18 18
- 0.695648 1 2 cbr 512 ------- 0 0.0 2.0 18 18
- 0.696608 0 1 cbr 512 ------- 0 0.0 2.0 25 25
+ 0.7 0 1 cbr 512 ------- 0 0.0 2.0 40 40
r 0.70288 1 2 cbr 512 ------- 0 0.0 2.0 13 13
r 0.70384 0 1 cbr 512 ------- 0 0.0 2.0 19 19
+ 0.70384 1 2 cbr 512 ------- 0 0.0 2.0 19 19
- 0.70384 1 2 cbr 512 ------- 0 0.0 2.0 19 19
- 0.7048 0 1 cbr 512 ------- 0 0.0 2.0 27 27
+ 0.705 0 1 cbr 512 ------- 0 0.0 2.0 41 41
+ 0.71 0 1 cbr 512 ------- 0 0.0 2.0 42 42
d 0.71 0 1 cbr 512 ------- 0 0.0 2.0 42 42
r 0.711072 1 2 cbr 512 ------- 0 0.0 2.0 14 14
r 0.712032 0 1 cbr 512 ------- 0 0.0 2.0 20 20
+ 0.712032 1 2 cbr 512 ------- 0 0.0 2.0 20 20
- 0.712032 1 2 cbr 512 ------- 0 0.0 2.0 20 20
- 0.712992 0 1 cbr 512 ------- 0 0.0 2.0 28 28
+ 0.715 0 1 cbr 512 ------- 0 0.0 2.0 43 43
r 0.719264 1 2 cbr 512 ------- 0 0.0 2.0 15 15
+ 0.72 0 1 cbr 512 ------- 0 0.0 2.0 44 44
d 0.72 0 1 cbr 512 ------- 0 0.0 2.0 44 44
r 0.720224 0 1 cbr 512 ------- 0 0.0 2.0 21 21
+ 0.720224 1 2 cbr 512 ------- 0 0.0 2.0 21 21
- 0.720224 1 2 cbr 512 ------- 0 0.0 2.0 21 21
- 0.721184 0 1 cbr 512 ------- 0 0.0 2.0 30 30
+ 0.725 0 1 cbr 512 ------- 0 0.0 2.0 45 45
r 0.727456 1 2 cbr 512 ------- 0 0.0 2.0 16 16
r 0.728416 0 1 cbr 512 ------- 0 0.0 2.0 22 22
+ 0.728416 1 2 cbr 512 ------- 0 0.0 2.0 22 22
- 0.728416 1 2 cbr 512 ------- 0 0.0 2.0 22 22
- 0.729376 0 1 cbr 512 ------- 0 0.0 2.0 32 32
+ 0.73 0 1 cbr 512 ------- 0 0.0 2.0 46 46
+ 0.735 0 1 cbr 512 ------- 0 0.0 2.0 47 47
d 0.735 0 1 cbr 512 ------- 0 0.0 2.0 47 47
r 0.735648 1 2 cbr 512 ------- 0 0.0 2.0 17 17
r 0.736608 0 1 cbr 512 ------- 0 0.0 2.0 23 23
+ 0.736608 1 2 cbr 512 ------- 0 0.0 2.0 23 23
- 0.736608 1 2 cbr 512 ------- 0 0.0 2.0 23 23
- 0.737568 0 1 cbr 512 ------- 0 0.0 2.0 33 33
+ 0.74 0 1 cbr 512 ------- 0 0.0 2.0 48 48
r 0.74384 1 2 cbr 512 ------- 0 0.0 2.0 18 18
r 0.7448 0 1 cbr 512 ------- 0 0.0 2.0 25 25
+ 0.7448 1 2 cbr 512 ------- 0 0.0 2.0 25 25
- 0.7448 1 2 cbr 512 ------- 0 0.0 2.0 25 25
+ 0.745 0 1 cbr 512 ------- 0 0.0 2.0 49 49
d 0.745 0 1 cbr 512 ------- 0 0.0 2.0 49 49
- 0.74576 0 1 cbr 512 ------- 0 0.0 2.0 35 35
+ 0.75 0 1 cbr 512 ------- 0 0.0 2.0 50 50
r 0.752032 1 2 cbr 512 ------- 0 0.0 2.0 19 19
r 0.752992 0 1 cbr 512 ------- 0 0.0 2.0 27 27
+ 0.752992 1 2 cbr 512 ------- 0 0.0 2.0 27 27
- 0.752992 1 2 cbr 512 ------- 0 0.0 2.0 27 27
- 0.753952 0 1 cbr 512 ------- 0 0.0 2.0 37 37
+ 0.755 0 1 cbr 512 ------- 0 0.0 2.0 51 51
+ 0.76 0 1 cbr 512 ------- 0 0.0 2.0 52 52
d 0.76 0 1 cbr 512 ------- 0 0.0 2.0 52 52
r 0.760224 1 2 cbr 512 ------- 0 0.0 2.0 20 20
r 0.761184 0 1 cbr 512 ------- 0 0.0 2.0 28 28
+ 0.761184 1 2 cbr 512 ------- 0 0.0 2.0 28 28
- 0.761184 1 2 cbr 512 ------- 0 0.0 2.0 28 28
- 0.762144 0 1 cbr 512 ------- 0 0.0 2.0 38 38
+ 0.765 0 1 cbr 512 ------- 0 0.0 2.0 53 53
r 0.768416 1 2 cbr 512 ------- 0 0.0 2.0 21 21
r 0.769376 0 1 cbr 512 ------- 0 0.0 2.0 30 30
+ 0.769376 1 2 cbr 512 ------- 0 0.0 2.0 30 30
- 0.769376 1 2 cbr 512 ------- 0 0.0 2.0 30 30
+ 0.77 0 1 cbr 512 ------- 0 0.0 2.0 54 54
d 0.77 0 1 cbr 512 ------- 0 0.0 2.0 54 54
- 0.770336 0 1 cbr 512 ------- 0 0.0 2.0 40 40
+ 0.775 0 1 cbr 512 ------- 0 0.0 2.0 55 55
r 0.776608 1 2 cbr 512 ------- 0 0.0 2.0 22 22
r 0.777568 0 1 cbr 512 ------- 0 0.0 2.0 32 32
+ 0.777568 1 2 cbr 512 ------- 0 0.0 2.0 32 32
- 0.777568 1 2 cbr 512 ------- 0 0.0 2.0 32 32
- 0.778528 0 1 cbr 512 ------- 0 0.0 2.0 41 41
+ 0.78 0 1 cbr 512 ------- 0 0.0 2.0 56 56
r 0.7848 1 2 cbr 512 ------- 0 0.0 2.0 23 23
+ 0.785 0 1 cbr 512 ------- 0 0.0 2.0 57 57
d 0.785 0 1 cbr 512 ------- 0 0.0 2.0 57 57
r 0.78576 0 1 cbr 512 ------- 0 0.0 2.0 33 33
+ 0.78576 1 2 cbr 512 ------- 0 0.0 2.0 33 33
- 0.78576 1 2 cbr 512 ------- 0 0.0 2.0 33 33
- 0.78672 0 1 cbr 512 ------- 0 0.0 2.0 43 43
+ 0.79 0 1 cbr 512 ------- 0 0.0 2.0 58 58
r 0.792992 1 2 cbr 512 ------- 0 0.0 2.0 25 25
r 0.793952 0 1 cbr 512 ------- 0 0.0 2.0 35 35
+ 0.793952 1 2 cbr 512 ------- 0 0.0 2.0 35 35
- 0.793952 1 2 cbr 512 ------- 0 0.0 2.0 35 35
- 0.794912 0 1 cbr 512 ------- 0 0.0 2.0 45 45
+ 0.795 0 1 cbr 512 ------- 0 0.0 2.0 59 59
+ 0.8 0 1 cbr 512 ------- 0 0.0 2.0 60 60
d 0.8 0 1 cbr 512 ------- 0 0.0 2.0 60 60
r 0.801184 1 2 cbr 512 ------- 0 0.0 2.0 27 27
r 0.802144 0 1 cbr 512 ------- 0 0.0 2.0 37 37
+ 0.802144 1 2 cbr 512 ------- 0 0.0 2.0 37 37
- 0.802144 1 2 cbr 512 ------- 0 0.0 2.0 37 37
- 0.803104 0 1 cbr 512 ------- 0 0.0 2.0 46 46
+ 0.805 0 1 cbr 512 ------- 0 0.0 2.0 61 61
r 0.809376 1 2 cbr 512 ------- 0 0.0 2.0 28 28
+ 0.81 0 1 cbr 512 ------- 0 0.0 2.0 62 62
d 0.81 0 1 cbr 512 ------- 0 0.0 2.0 62 62
r 0.810336 0 1 cbr 512 ------- 0 0.0 2.0 38 38
+ 0.810336 1 2 cbr 512 ------- 0 0.0 2.0 38 38
- 0.810336 1 2 cbr 512 ------- 0 0.0 2.0 38 38
- 0.811296 0 1 cbr 512 ------- 0 0.0 2.0 48 48
+ 0.815 0 1 cbr 512 ------- 0 0.0 2.0 63 63
r 0.817568 1 2 cbr 512 ------- 0 0.0 2.0 30 30
r 0.818528 0 1 cbr 512 ------- 0 0.0 2.0 40 40
+ 0.818528 1 2 cbr 512 ------- 0 0.0 2.0 40 40
- 0.818528 1 2 cbr 512 ------- 0 0.0 2.0 40 40
- 0.819488 0 1 cbr 512 ------- 0 0.0 2.0 50 50
+ 0.82 0 1 cbr 512 ------- 0 0.0 2.0 64 64
+ 0.825 0 1 cbr 512 ------- 0 0.0 2.0 65 65
d 0.825 0 1 cbr 512 ------- 0 0.0 2.0 65 65
r 0.82576 1 2 cbr 512 ------- 0 0.0 2.0 32 32
r 0.82672 0 1 cbr 512 ------- 0 0.0 2.0 41 41
+ 0.82672 1 2 cbr 512 ------- 0 0.0 2.0 41 41
- 0.82672 1 2 cbr 512 ------- 0 0.0 2.0 41 41
- 0.82768 0 1 cbr 512 ------- 0 0.0 2.0 51 51
+ 0.83 0 1 cbr 512 ------- 0 0.0 2.0 66 66
r 0.833952 1 2 cbr 512 ------- 0 0.0 2.0 33 33
r 0.834912 0 1 cbr 512 ------- 0 0.0 2.0 43 43
+ 0.834912 1 2 cbr 512 ------- 0 0.0 2.0 43 43
- 0.834912 1 2 cbr 512 ------- 0 0.0 2.0 43 43
+ 0.835 0 1 cbr 512 ------- 0 0.0 2.0 67 67
d 0.835 0 1 cbr 512 ------- 0 0.0 2.0 67 67
- 0.835872 0 1 cbr 512 ------- 0 0.0 2.0 53 53
+ 0.84 0 1 cbr 512 ------- 0 0.0 2.0 68 68
r 0.842144 1 2 cbr 512 ------- 0 0.0 2.0 35 35
r 0.843104 0 1 cbr 512 ------- 0 0.0 2.0 45 45
+ 0.843104 1 2 cbr 512 ------- 0 0.0 2.0 45 45
- 0.843104 1 2 cbr 512 ------- 0 0.0 2.0 45 45
- 0.844064 0 1 cbr 512 ------- 0 0.0 2.0 55 55
+ 0.845 0 1 cbr 512 ------- 0 0.0 2.0 69 69
+ 0.85 0 1 cbr 512 ------- 0 0.0 2.0 70 70
d 0.85 0 1 cbr 512 ------- 0 0.0 2.0 70 70
r 0.850336 1 2 cbr 512 ------- 0 0.0 2.0 37 37
r 0.851296 0 1 cbr 512 ------- 0 0.0 2.0 46 46
+ 0.851296 1 2 cbr 512 ------- 0 0.0 2.0 46 46
- 0.851296 1 2 cbr 512 ------- 0 0.0 2.0 46 46
- 0.852256 0 1 cbr 512 ------- 0 0.0 2.0 56 56
+ 0.855 0 1 cbr 512 ------- 0 0.0 2.0 71 71
r 0.858528 1 2 cbr 512 ------- 0 0.0 2.0 38 38
r 0.859488 0 1 cbr 512 ------- 0 0.0 2.0 48 48
+ 0.859488 1 2 cbr 512 ------- 0 0.0 2.0 48 48
- 0.859488 1 2 cbr 512 ------- 0 0.0 2.0 48 48
+ 0.86 0 1 cbr 512 ------- 0 0.0 2.0 72 72
d 0.86 0 1 cbr 512 ------- 0 0.0 2.0 72 72
- 0.860448 0 1 cbr 512 ------- 0 0.0 2.0 58 58
+ 0.865 0 1 cbr 512 ------- 0 0.0 2.0 73 73
r 0.86672 1 2 cbr 512 ------- 0 0.0 2.0 40 40
r 0.86768 0 1 cbr 512 ------- 0 0.0 2.0 50 50
+ 0.86768 1 2 cbr 512 ------- 0 0.0 2.0 50 50
- 0.86768 1 2 cbr 512 ------- 0 0.0 2.0 50 50
- 0.86864 0 1 cbr 512 ------- 0 0.0 2.0 59 59
+ 0.87 0 1 cbr 512 ------- 0 0.0 2.0 74 74
r 0.874912 1 2 cbr 512 ------- 0 0.0 2.0 41 41
+ 0.875 0 1 cbr 512 ------- 0 0.0 2.0 75 75
d 0.875 0 1 cbr 512 ------- 0 0.0 2.0 75 75
r 0.875872 0 1 cbr 512 ------- 0 0.0 2.0 51 51
+ 0.875872 1 2 cbr 512 ------- 0 0.0 2.0 51 51
- 0.875872 1 2 cbr 512 ------- 0 0.0 2.0 51 51
- 0.876832 0 1 cbr 512 ------- 0 0.0 2.0 61 61
+ 0.88 0 1 cbr 512 ------- 0 0.0 2.0 76 76
r 0.883104 1 2 cbr 512 ------- 0 0.0 2.0 43 43
r 0.884064 0 1 cbr 512 ------- 0 0.0 2.0 53 53
+ 0.884064 1 2 cbr 512 ------- 0 0.0 2.0 53 53
- 0.884064 1 2 cbr 512 ------- 0 0.0 2.0 53 53
+ 0.885 0 1 cbr 512 ------- 0 0.0 2.0 77 77
d 0.885 0 1 cbr 512 ------- 0 0.0 2.0 77 77
- 0.885024 0 1 cbr 512 ------- 0 0.0 2.0 63 63
+ 0.89 0 1 cbr 512 ------- 0 0.0 2.0 78 78
r 0.891296 1 2 cbr 512 ------- 0 0.0 2.0 45 45
r 0.892256 0 1 cbr 512 ------- 0 0.0 2.0 55 55
+ 0.892256 1 2 cbr 512 ------- 0 0.0 2.0 55 55
- 0.892256 1 2 cbr 512 ------- 0 0.0 2.0 55 55
- 0.893216 0 1 cbr 512 ------- 0 0.0 2.0 64 64
+ 0.895 0 1 cbr 512 ------- 0 0.0 2.0 79 79
r 0.899488 1 2 cbr 512 ------- 0 0.0 2.0 46 46
+ 0.9 0 1 cbr 512 ------- 0 0.0 2.0 80 80
d 0.9 0 1 cbr 512 ------- 0 0.0 2.0 80 80
r 0.900448 0 1 cbr 512 ------- 0 0.0 2.0 56 56
+ 0.900448 1 2 cbr 512 ------- 0 0.0 2.0 56 56
- 0.900448 1 2 cbr 512 ------- 0 0.0 2.0 56 56
- 0.901408 0 1 cbr 512 ------- 0 0.0 2.0 66 66
+ 0.905 0 1 cbr 512 ------- 0 0.0 2.0 81 81
r 0.90768 1 2 cbr 512 ------- 0 0.0 2.0 48 48
r 0.90864 0 1 cbr 512 ------- 0 0.0 2.0 58 58
+ 0.90864 1 2 cbr 512 ------- 0 0.0 2.0 58 58
- 0.90864 1 2 cbr 512 ------- 0 0.0 2.0 58 58
- 0.9096 0 1 cbr 512 ------- 0 0.0 2.0 68 68
+ 0.91 0 1 cbr 512 ------- 0 0.0 2.0 82 82
+ 0.915 0 1 cbr 512 ------- 0 0.0 2.0 83 83
d 0.915 0 1 cbr 512 ------- 0 0.0 2.0 83 83
r 0.915872 1 2 cbr 512 ------- 0 0.0 2.0 50 50
r 0.916832 0 1 cbr 512 ------- 0 0.0 2.0 59 59
+ 0.916832 1 2 cbr 512 ------- 0 0.0 2.0 59 59
- 0.916832 1 2 cbr 512 ------- 0 0.0 2.0 59 59
- 0.917792 0 1 cbr 512 ------- 0 0.0 2.0 69 69
+ 0.92 0 1 cbr 512 ------- 0 0.0 2.0 84 84
r 0.924064 1 2 cbr 512 ------- 0 0.0 2.0 51 51
+ 0.925 0 1 cbr 512 ------- 0 0.0 2.0 85 85
d 0.925 0 1 cbr 512 ------- 0 0.0 2.0 85 85
r 0.925024 0 1 cbr 512 ------- 0 0.0 2.0 61 61
+ 0.925024 1 2 cbr 512 ------- 0 0.0 2.0 61 61
- 0.925024 1 2 cbr 512 ------- 0 0.0 2.0 61 61
- 0.925984 0 1 cbr 512 ------- 0 0.0 2.0 71 71
+ 0.93 0 1 cbr 512 ------- 0 0.0 2.0 86 86
r 0.932256 1 2 cbr 512 ------- 0 0.0 2.0 53 53
r 0.933216 0 1 cbr 512 ------- 0 0.0 2.0 63 63
+ 0.933216 1 2 cbr 512 ------- 0 0.0 2.0 63 63
- 0.933216 1 2 cbr 512 ------- 0 0.0 2.0 63 63
- 0.934176 0 1 cbr 512 ------- 0 0.0 2.0 73 73
+ 0.935 0 1 cbr 512 ------- 0 0.0 2.0 87 87
+ 0.94 0 1 cbr 512 ------- 0 0.0 2.0 88 88
d 0.94 0 1 cbr 512 ------- 0 0.0 2.0 88 88
r 0.940448 1 2 cbr 512 ------- 0 0.0 2.0 55 55
r 0.941408 0 1 cbr 512 ------- 0 0.0 2.0 64 64
+ 0.941408 1 2 cbr 512 ------- 0 0.0 2.0 64 64
- 0.941408 1 2 cbr 512 ------- 0 0.0 2.0 64 64
- 0.942368 0 1 cbr 512 ------- 0 0.0 2.0 74 74
+ 0.945 0 1 cbr 512 ------- 0 0.0 2.0 89 89
r 0.94864 1 2 cbr 512 ------- 0 0.0 2.0 56 56
r 0.9496 0 1 cbr 512 ------- 0 0.0 2.0 66 66
+ 0.9496 1 2 cbr 512 ------- 0 0.0 2.0 66 66
- 0.9496 1 2 cbr 512 ------- 0 0.0 2.0 66 66
+ 0.95 0 1 cbr 512 ------- 0 0.0 2.0 90 90
d 0.95 0 1 cbr 512 ------- 0 0.0 2.0 90 90
- 0.95056 0 1 cbr 512 ------- 0 0.0 2.0 76 76
+ 0.955 0 1 cbr 512 ------- 0 0.0 2.0 91 91
r 0.956832 1 2 cbr 512 ------- 0 0.0 2.0 58 58
r 0.957792 0 1 cbr 512 ------- 0 0.0 2.0 68 68
+ 0.957792 1 2 cbr 512 ------- 0 0.0 2.0 68 68
- 0.957792 1 2 cbr 512 ------- 0 0.0 2.0 68 68
- 0.958752 0 1 cbr 512 ------- 0 0.0 2.0 78 78
+ 0.96 0 1 cbr 512 ------- 0 0.0 2.0 92 92
+ 0.965 0 1 cbr 512 ------- 0 0.0 2.0 93 93
d 0.965 0 1 cbr 512 ------- 0 0.0 2.0 93 93
r 0.965024 1 2 cbr 512 ------- 0 0.0 2.0 59 59
r 0.965984 0 1 cbr 512 ------- 0 0.0 2.0 69 69
+ 0.965984 1 2 cbr 512 ------- 0 0.0 2.0 69 69
- 0.965984 1 2 cbr 512 ------- 0 0.0 2.0 69 69
- 0.966944 0 1 cbr 512 ------- 0 0.0 2.0 79 79
+ 0.97 0 1 cbr 512 ------- 0 0.0 2.0 94 94
r 0.973216 1 2 cbr 512 ------- 0 0.0 2.0 61 61
r 0.974176 0 1 cbr 512 ------- 0 0.0 2.0 71 71
+ 0.974176 1 2 cbr 512 ------- 0 0.0 2.0 71 71
- 0.974176 1 2 cbr 512 ------- 0 0.0 2.0 71 71
+ 0.975 0 1 cbr 512 ------- 0 0.0 2.0 95 95
d 0.975 0 1 cbr 512 ------- 0 0.0 2.0 95 95
- 0.975136 0 1 cbr 512 ------- 0 0.0 2.0 81 81
+ 0.98 0 1 cbr 512 ------- 0 0.0 2.0 96 96
r 0.981408 1 2 cbr 512 ------- 0 0.0 2.0 63 63
r 0.982368 0 1 cbr 512 ------- 0 0.0 2.0 73 73
+ 0.982368 1 2 cbr 512 ------- 0 0.0 2.0 73 73
- 0.982368 1 2 cbr 512 ------- 0 0.0 2.0 73 73
- 0.983328 0 1 cbr 512 ------- 0 0.0 2.0 82 82
+ 0.985 0 1 cbr 512 ------- 0 0.0 2.0 97 97
r 0.9896 1 2 cbr 512 ------- 0 0.0 2.0 64 64
+ 0.99 0 1 cbr 512 ------- 0 0.0 2.0 98 98
d 0.99 0 1 cbr 512 ------- 0 0.0 2.0 98 98
r 0.99056 0 1 cbr 512 ------- 0 0.0 2.0 74 74
+ 0.99056 1 2 cbr 512 ------- 0 0.0 2.0 74 74
- 0.99056 1 2 cbr 512 ------- 0 0.0 2.0 74 74
- 0.99152 0 1 cbr 512 ------- 0 0.0 2.0 84 84
+ 0.995 0 1 cbr 512 ------- 0 0.0 2.0 99 99
r 0.997792 1 2 cbr 512 ------- 0 0.0 2.0 66 66
r 0.998752 0 1 cbr 512 ------- 0 0.0 2.0 76 76
+ 0.998752 1 2 cbr 512 ------- 0 0.0 2.0 76 76
- 0.998752 1 2 cbr 512 ------- 0 0.0 2.0 76 76
- 0.999712 0 1 cbr 512 ------- 0 0.0 2.0 86 86
+ 1 0 1 cbr 512 ------- 0 0.0 2.0 100 100
+ 1.005 0 1 cbr 512 ------- 0 0.0 2.0 101 101
d 1.005 0 1 cbr 512 ------- 0 0.0 2.0 101 101
r 1.005984 1 2 cbr 512 ------- 0 0.0 2.0 68 68
r 1.006944 0 1 cbr 512 ------- 0 0.0 2.0 78 78
+ 1.006944 1 2 cbr 512 ------- 0 0.0 2.0 78 78
- 1.006944 1 2 cbr 512 ------- 0 0.0 2.0 78 78
- 1.007904 0 1 cbr 512 ------- 0 0.0 2.0 87 87
+ 1.01 0 1 cbr 512 ------- 0 0.0 2.0 102 102
r 1.014176 1 2 cbr 512 ------- 0 0.0 2.0 69 69
+ 1.015 0 1 cbr 512 ------- 0 0.0 2.0 103 103
d 1.015 0 1 cbr 512 ------- 0 0.0 2.0 103 103
r 1.015136 0 1 cbr 512 ------- 0 0.0 2.0 79 79
+ 1.015136 1 2 cbr 512 ------- 0 0.0 2.0 79 79
- 1.015136 1 2 cbr 512 ------- 0 0.0 2.0 79 79
- 1.016096 0 1 cbr 512 ------- 0 0.0 2.0 89 89
+ 1.02 0 1 cbr 512 ------- 0 0.0 2.0 104 104
r 1.022368 1 2 cbr 512 ------- 0 0.0 2.0 71 71
r 1.023328 0 1 cbr 512 ------- 0 0.0 2.0 81 81
+ 1.023328 1 2 cbr 512 ------- 0 0.0 2.0 81 81
- 1.023328 1 2 cbr 512 ------- 0 0.0 2.0 81 81
- 1.024288 0 1 cbr 512 ------- 0 0.0 2.0 91 91
+ 1.025 0 1 cbr 512 ------- 0 0.0 2.0 105 105
+ 1.03 0 1 cbr 512 ------- 0 0.0 2.0 106 106
d 1.03 0 1 cbr 512 ------- 0 0.0 2.0 106 106
r 1.03056 1 2 cbr 512 ------- 0 0.0 2.0 73 73
r 1.03152 0 1 cbr 512 ------- 0 0.0 2.0 82 82
+ 1.03152 1 2 cbr 512 ------- 0 0.0 2.0 82 82
- 1.03152 1 2 cbr 512 ------- 0 0.0 2.0 82 82
- 1.03248 0 1 cbr 512 ------- 0 0.0 2.0 92 92
+ 1.035 0 1 cbr 512 ------- 0 0.0 2.0 107 107
r 1.038752 1 2 cbr 512 ------- 0 0.0 2.0 74 74
r 1.039712 0 1 cbr 512 ------- 0 0.0 2.0 84 84
+ 1.039712 1 2 cbr 512 ------- 0 0.0 2.0 84 84
- 1.039712 1 2 cbr 512 ------- 0 0.0 2.0 84 84
+ 1.04 0 1 cbr 512 ------- 0 0.0 2.0 108 108
d 1.04 0 1 cbr 512 ------- 0 0.0 2.0 108 108
- 1.040672 0 1 cbr 512 ------- 0 0.0 2.0 94 94
+ 1.045 0 1 cbr 512 ------- 0 0.0 2.0 109 109
r 1.046944 1 2 cbr 512 ------- 0 0.0 2.0 76 76
r 1.047904 0 1 cbr 512 ------- 0 0.0 2.0 86 86
+ 1.047904 1 2 cbr 512 ------- 0 0.0 2.0 86 86
- 1.047904 1 2 cbr 512 ------- 0 0.0 2.0 86 86
- 1.048864 0 1 cbr 512 ------- 0 0.0 2.0 96 96
+ 1.05 0 1 cbr 512 ------- 0 0.0 2.0 110 110
+ 1.055 0 1 cbr 512 ------- 0 0.0 2.0 111 111
d 1.055 0 1 cbr 512 ------- 0 0.0 2.0 111 111
r 1.055136 1 2 cbr 512 ------- 0 0.0 2.0 78 78
r 1.056096 0 1 cbr 512 ------- 0 0.0 2.0 87 87
+ 1.056096 1 2 cbr 512 ------- 0 0.0 2.0 87 87
- 1.056096 1 2 cbr 512 ------- 0 0.0 2.0 87 87
- 1.057056 0 1 cbr 512 ------- 0 0.0 2.0 97 97
+ 1.06 0 1 cbr 512 ------- 0 0.0 2.0 112 112
r 1.063328 1 2 cbr 512 ------- 0 0.0 2.0 79 79
r 1.064288 0 1 cbr 512 ------- 0 0.0 2.0 89 89
+ 1.064288 1 2 cbr 512 ------- 0 0.0 2.0 89 89
- 1.064288 1 2 cbr 512 ------- 0 0.0 2.0 89 89
+ 1.065 0 1 cbr 512 ------- 0 0.0 2.0 113 113
d 1.065 0 1 cbr 512 ------- 0 0.0 2.0 113 113
- 1.065248 0 1 cbr 512 ------- 0 0.0 2.0 99 99
+ 1.07 0 1 cbr 512 ------- 0 0.0 2.0 114 114
r 1.07152 1 2 cbr 512 ------- 0 0.0 2.0 81 81
r 1.07248 0 1 cbr 512 ------- 0 0.0 2.0 91 91
+ 1.07248 1 2 cbr 512 ------- 0 0.0 2.0 91 91
- 1.07248 1 2 cbr 512 ------- 0 0.0 2.0 91 91
- 1.07344 0 1 cbr 512 ------- 0 0.0 2.0 100 100
+ 1.075 0 1 cbr 512 ------- 0 0.0 2.0 115 115
r 1.079712 1 2 cbr 512 ------- 0 0.0 2.0 82 82
+ 1.08 0 1 cbr 512 ------- 0 0.0 2.0 116 116
d 1.08 0 1 cbr 512 ------- 0 0.0 2.0 116 116
r 1.080672 0 1 cbr 512 ------- 0 0.0 2.0 92 92
+ 1.080672 1 2 cbr 512 ------- 0 0.0 2.0 92 92
- 1.080672 1 2 cbr 512 ------- 0 0.0 2.0 92 92
- 1.081632 0 1 cbr 512 ------- 0 0.0 2.0 102 102
+ 1.085 0 1 cbr 512 ------- 0 0.0 2.0 117 117
r 1.087904 1 2 cbr 512 ------- 0 0.0 2.0 84 84
r 1.088864 0 1 cbr 512 ------- 0 0.0 2.0 94 94
+ 1.088864 1 2 cbr 512 ------- 0 0.0 2.0 94 94
- 1.088864 1 2 cbr 512 ------- 0 0.0 2.0 94 94
- 1.089824 0 1 cbr 512 ------- 0 0.0 2.0 104 104
+ 1.09 0 1 cbr 512 ------- 0 0.0 2.0 118 118
+ 1.095 0 1 cbr 512 ------- 0 0.0 2.0 119 119
d 1.095 0 1 cbr 512 ------- 0 0.0 2.0 119 119
r 1.096096 1 2 cbr 512 ------- 0 0.0 2.0 86 86
r 1.097056 0 1 cbr 512 ------- 0 0.0 2.0 96 96
+ 1.097056 1 2 cbr 512 ------- 0 0.0 2.0 96 96
- 1.097056 1 2 cbr 512 ------- 0 0.0 2.0 96 96
- 1.098016 0 1 cbr 512 ------- 0 0.0 2.0 105 105
+ 1.1 0 1 cbr 512 ------- 0 0.0 2.0 120 120
r 1.104288 1 2 cbr 512 ------- 0 0.0 2.0 87 87
+ 1.105 0 1 cbr 512 ------- 0 0.0 2.0 121 121
d 1.105 0 1 cbr 512 ------- 0 0.0 2.0 121 121
r 1.105248 0 1 cbr 512 ------- 0 0.0 2.0 97 97
+ 1.105248 1 2 cbr 512 ------- 0 0.0 2.0 97 97
- 1.105248 1 2 cbr 512 ------- 0 0.0 2.0 97 97
- 1.106208 0 1 cbr 512 ------- 0 0.0 2.0 107 107
+ 1.11 0 1 cbr 512 ------- 0 0.0 2.0 122 122
r 1.11248 1 2 cbr 512 ------- 0 0.0 2.0 89 89
r 1.11344 0 1 cbr 512 ------- 0 0.0 2.0 99 99
+ 1.11344 1 2 cbr 512 ------- 0 0.0 2.0 99 99
- 1.11344 1 2 cbr 512 ------- 0 0.0 2.0 99 99
- 1.1144 0 1 cbr 512 ------- 0 0.0 2.0 109 109
+ 1.115 0 1 cbr 512 ------- 0 0.0 2.0 123 123
+ 1.12 0 1 cbr 512 ------- 0 0.0 2.0 124 124
d 1.12 0 1 cbr 512 ------- 0 0.0 2.0 124 124
r 1.120672 1 2 cbr 512 ------- 0 0.0 2.0 91 91
r 1.121632 0 1 cbr 512 ------- 0 0.0 2.0 100 100
+ 1.121632 1 2 cbr 512 ------- 0 0.0 2.0 100 100
- 1.121632 1 2 cbr 512 ------- 0 0.0 2.0 100 100
- 1.122592 0 1 cbr 512 ------- 0 0.0 2.0 110 110
+ 1.125 0 1 cbr 512 ------- 0 0.0 2.0 125 125
r 1.128864 1 2 cbr 512 ------- 0 0.0 2.0 92 92
r 1.129824 0 1 cbr 512 ------- 0 0.0 2.0 102 102
+ 1.129824 1 2 cbr 512 ------- 0 0.0 2.0 102 102
- 1.129824 1 2 cbr 512 ------- 0 0.0 2.0 102 102
+ 1.13 0 1 cbr 512 ------- 0 0.0 2.0 126 126
d 1.13 0 1 cbr 512 ------- 0 0.0 2.0 126 126
- 1.130784 0 1 cbr 512 ------- 0 0.0 2.0 112 112
+ 1.135 0 1 cbr 512 ------- 0 0.0 2.0 127 127
r 1.137056 1 2 cbr 512 ------- 0 0.0 2.0 94 94
r 1.138016 0 1 cbr 512 ------- 0 0.0 2.0 104 104
+ 1.138016 1 2 cbr 512 ------- 0 0.0 2.0 104 104
- 1.138016 1 2 cbr 512 ------- 0 0.0 2.0 104 104
- 1.138976 0 1 cbr 512 ------- 0 0.0 2.0 114 114
+ 1.14 0 1 cbr 512 ------- 0 0.0 2.0 128 128
+ 1.145 0 1 cbr 512 ------- 0 0.0 2.0 129 129
d 1.145 0 1 cbr 512 ------- 0 0.0 2.0 129 129
r 1.145248 1 2 cbr 512 ------- 0 0.0 2.0 96 96
r 1.146208 0 1 cbr 512 ------- 0 0.0 2.0 105 105
+ 1.146208 1 2 cbr 512 ------- 0 0.0 2.0 105 105
- 1.146208 1 2 cbr 512 ------- 0 0.0 2.0 105 105
- 1.147168 0 1 cbr 512 ------- 0 0.0 2.0 115 115
+ 1.15 0 1 cbr 512 ------- 0 0.0 2.0 130 130
r 1.15344 1 2 cbr 512 ------- 0 0.0 2.0 97 97
r 1.1544 0 1 cbr 512 ------- 0 0.0 2.0 107 107
+ 1.1544 1 2 cbr 512 ------- 0 0.0 2.0 107 107
- 1.1544 1 2 cbr 512 ------- 0 0.0 2.0 107 107
+ 1.155 0 1 cbr 512 ------- 0 0.0 2.0 131 131
d 1.155 0 1 cbr 512 ------- 0 0.0 2.0 131 131
- 1.15536 0 1 cbr 512 ------- 0 0.0 2.0 117 117
+ 1.16 0 1 cbr 512 ------- 0 0.0 2.0 132 132
r 1.161632 1 2 cbr 512 ------- 0 0.0 2.0 99 99
r 1.162592 0 1 cbr 512 ------- 0 0.0 2.0 109 109
+ 1.162592 1 2 cbr 512 ------- 0 0.0 2.0 109 109
- 1.162592 1 2 cbr 512 ------- 0 0.0 2.0 109 109
- 1.163552 0 1 cbr 512 ------- 0 0.0 2.0 118 118
+ 1.165 0 1 cbr 512 ------- 0 0.0 2.0 133 133
r 1.169824 1 2 cbr 512 ------- 0 0.0 2.0 100 100
+ 1.17 0 1 cbr 512 ------- 0 0.0 2.0 134 134
d 1.17 0 1 cbr 512 ------- 0 0.0 2.0 134 134
r 1.170784 0 1 cbr 512 ------- 0 0.0 2.0 110 110
+ 1.170784 1 2 cbr 512 ------- 0 0.0 2.0 110 110
- 1.170784 1 2 cbr 512 ------- 0 0.0 2.0 110 110
- 1.171744 0 1 cbr 512 ------- 0 0.0 2.0 120 120
+ 1.175 0 1 cbr 512 ------- 0 0.0 2.0 135 135
r 1.178016 1 2 cbr 512 ------- 0 0.0 2.0 102 102
r 1.178976 0 1 cbr 512 ------- 0 0.0 2.0 112 112
+ 1.178976 1 2 cbr 512 ------- 0 0.0 2.0 112 112
- 1.178976 1 2 cbr 512 ------- 0 0.0 2.0 112 112
- 1.179936 0 1 cbr 512 ------- 0 0.0 2.0 122 122
+ 1.18 0 1 cbr 512 ------- 0 0.0 2.0 136 136
+ 1.185 0 1 cbr 512 ------- 0 0.0 2.0 137 137
d 1.185 0 1 cbr 512 ------- 0 0.0 2.0 137 137
r 1.186208 1 2 cbr 512 ------- 0 0.0 2.0 104 104
r 1.187168 0 1 cbr 512 ------- 0 0.0 2.0 114 114
+ 1.187168 1 2 cbr 512 ------- 0 0.0 2.0 114 114
- 1.187168 1 2 cbr 512 ------- 0 0.0 2.0 114 114
- 1.188128 0 1 cbr 512 ------- 0 0.0 2.0 123 123
+ 1.19 0 1 cbr 512 ------- 0 0.0 2.0 138 138
r 1.1944 1 2 cbr 512 ------- 0 0.0 2.0 105 105
+ 1.195 0 1 cbr 512 ------- 0 0.0 2.0 139 139
d 1.195 0 1 cbr 512 ------- 0 0.0 2.0 139 139
r 1.19536 0 1 cbr 512 ------- 0 0.0 2.0 115 115
+ 1.19536 1 2 cbr 512 ------- 0 0.0 2.0 115 115
- 1.19536 1 2 cbr 512 ------- 0 0.0 2.0 115 115
- 1.19632 0 1 cbr 512 ------- 0 0.0 2.0 125 125
+ 1.2 0 1 cbr 512 ------- 0 0.0 2.0 140 140
r 1.202592 1 2 cbr 512 ------- 0 0.0 2.0 107 107
r 1.203552 0 1 cbr 512 ------- 0 0.0 2.0 117 117
+ 1.203552 1 2 cbr 512 ------- 0 0.0 2.0 117 117
- 1.203552 1 2 cbr 512 ------- 0 0.0 2.0 117 117
- 1.204512 0 1 cbr 512 ------- 0 0.0 2.0 127 127
+ 1.205 0 1 cbr 512 ------- 0 0.0 2.0 141 141
+ 1.21 0 1 cbr 512 ------- 0 0.0 2.0 142 142
d 1.21 0 1 cbr 512 ------- 0 0.0 2.0 142 142
r 1.210784 1 2 cbr 512 ------- 0 0.0 2.0 109 109
r 1.211744 0 1 cbr 512 ------- 0 0.0 2.0 118 118
+ 1.211744 1 2 cbr 512 ------- 0 0.0 2.0 118 118
- 1.211744 1 2 cbr 512 ------- 0 0.0 2.0 118 118
- 1.212704 0 1 cbr 512 ------- 0 0.0 2.0 128 128
+ 1.215 0 1 cbr 512 ------- 0 0.0 2.0 143 143
r 1.218976 1 2 cbr 512 ------- 0 0.0 2.0 110 110
r 1.219936 0 1 cbr 512 ------- 0 0.0 2.0 120 120
+ 1.219936 1 2 cbr 512 ------- 0 0.0 2.0 120 120
- 1.219936 1 2 cbr 512 ------- 0 0.0 2.0 120 120
+ 1.22 0 1 cbr 512 ------- 0 0.0 2.0 144 144
d 1.22 0 1 cbr 512 ------- 0 0.0 2.0 144 144
- 1.220896 0 1 cbr 512 ------- 0 0.0 2.0 130 130
+ 1.225 0 1 cbr 512 ------- 0 0.0 2.0 145 145
r 1.227168 1 2 cbr 512 ------- 0 0.0 2.0 112 112
r 1.228128 0 1 cbr 512 ------- 0 0.0 2.0 122 122
+ 1.228128 1 2 cbr 512 ------- 0 0.0 2.0 122 122
- 1.228128 1 2 cbr 512 ------- 0 0.0 2.0 122 122
- 1.229088 0 1 cbr 512 ------- 0 0.0 2.0 132 132
+ 1.23 0 1 cbr 512 ------- 0 0.0 2.0 146 146
+ 1.235 0 1 cbr 512 ------- 0 0.0 2.0 147 147
d 1.235 0 1 cbr 512 ------- 0 0.0 2.0 147 147
r 1.23536 1 2 cbr 512 ------- 0 0.0 2.0 114 114
r 1.23632 0 1 cbr 512 ------- 0 0.0 2.0 123 123
+ 1.23632 1 2 cbr 512 ------- 0 0.0 2.0 123 123
- 1.23632 1 2 cbr 512 ------- 0 0.0 2.0 123 123
- 1.23728 0 1 cbr 512 ------- 0 0.0 2.0 133 133
+ 1.24 0 1 cbr 512 ------- 0 0.0 2.0 148 148
r 1.243552 1 2 cbr 512 ------- 0 0.0 2.0 115 115
r 1.244512 0 1 cbr 512 ------- 0 0.0 2.0 125 125
+ 1.244512 1 2 cbr 512 ------- 0 0.0 2.0 125 125
- 1.244512 1 2 cbr 512 ------- 0 0.0 2.0 125 125
+ 1.245 0 1 cbr 512 ------- 0 0.0 2.0 149 149
d 1.245 0 1 cbr 512 ------- 0 0.0 2.0 149 149
- 1.245472 0 1 cbr 512 ------- 0 0.0 2.0 135 135
+ 1.25 0 1 cbr 512 ------- 0 0.0 2.0 150 150
r 1.251744 1 2 cbr 512 ------- 0 0.0 2.0 117 117
r 1.252704 0 1 cbr 512 ------- 0 0.0 2.0 127 127
+ 1.252704 1 2 cbr 512 ------- 0 0.0 2.0 127 127
- 1.252704 1 2 cbr 512 ------- 0 0.0 2.0 127 127
- 1.253664 0 1 cbr 512 ------- 0 0.0 2.0 136 136
+ 1.255 0 1 cbr 512 ------- 0 0.0 2.0 151 151
r 1.259936 1 2 cbr 512 ------- 0 0.0 2.0 118 118
+ 1.26 0 1 cbr 512 ------- 0 0.0 2.0 152 152
d 1.26 0 1 cbr 512 ------- 0 0.0 2.0 152 152
r 1.260896 0 1 cbr 512 ------- 0 0.0 2.0 128 128
+ 1.260896 1 2 cbr 512 ------- 0 0.0 2.0 128 128
- 1.260896 1 2 cbr 512 ------- 0 0.0 2.0 128 128
- 1.261856 0 1 cbr 512 ------- 0 0.0 2.0 138 138
+ 1.265 0 1 cbr 512 ------- 0 0.0 2.0 153 153
r 1.268128 1 2 cbr 512 ------- 0 0.0 2.0 120 120
r 1.269088 0 1 cbr 512 ------- 0 0.0 2.0 130 130
+ 1.269088 1 2 cbr 512 ------- 0 0.0 2.0 130 130
- 1.269088 1 2 cbr 512 ------- 0 0.0 2.0 130 130
+ 1.27 0 1 cbr 512 ------- 0 0.0 2.0 154 154
d 1.27 0 1 cbr 512 ------- 0 0.0 2.0 154 154