+ 0.5 0 1 cbr 512 ------- 2 0.0 2.0 0 0
- 0.5 0 1 cbr 512 ------- 2 0.0 2.0 0 0
+ 0.505 0 1 cbr 512 ------- 2 0.0 2.0 1 1
+ 0.51 0 1 cbr 512 ------- 2 0.0 2.0 2 2
+ 0.515 0 1 cbr 512 ------- 2 0.0 2.0 3 3
+ 0.52 0 1 cbr 512 ------- 2 0.0 2.0 4 4
+ 0.525 0 1 cbr 512 ------- 2 0.0 2.0 5 5
+ 0.53 0 1 cbr 512 ------- 2 0.0 2.0 6 6
+ 0.535 0 1 cbr 512 ------- 2 0.0 2.0 7 7
+ 0.54 0 1 cbr 512 ------- 2 0.0 2.0 8 8
- 0.54096 0 1 cbr 512 ------- 2 0.0 2.0 1 1
+ 0.545 0 1 cbr 512 ------- 2 0.0 2.0 9 9
+ 0.55 0 1 cbr 512 ------- 2 0.0 2.0 10 10
+ 0.555 0 1 cbr 512 ------- 2 0.0 2.0 11 11
d 0.555 0 1 cbr 512 ------- 2 0.0 2.0 11 11
+ 0.56 0 1 cbr 512 ------- 2 0.0 2.0 12 12
d 0.56 0 1 cbr 512 ------- 2 0.0 2.0 12 12
r 0.56096 0 1 cbr 512 ------- 2 0.0 2.0 0 0
+ 0.56096 1 2 cbr 512 ------- 2 0.0 2.0 0 0
- 0.56096 1 2 cbr 512 ------- 2 0.0 2.0 0 0
+ 0.565 0 1 cbr 512 ------- 2 0.0 2.0 13 13
d 0.565 0 1 cbr 512 ------- 2 0.0 2.0 13 13
+ 0.57 0 1 cbr 512 ------- 2 0.0 2.0 14 14
d 0.57 0 1 cbr 512 ------- 2 0.0 2.0 14 14
+ 0.575 0 1 cbr 512 ------- 2 0.0 2.0 15 15
d 0.575 0 1 cbr 512 ------- 2 0.0 2.0 15 15
+ 0.58 0 1 cbr 512 ------- 2 0.0 2.0 16 16
d 0.58 0 1 cbr 512 ------- 2 0.0 2.0 16 16
- 0.58192 0 1 cbr 512 ------- 2 0.0 2.0 2 2
+ 0.585 0 1 cbr 512 ------- 2 0.0 2.0 17 17
+ 0.59 0 1 cbr 512 ------- 2 0.0 2.0 18 18
d 0.59 0 1 cbr 512 ------- 2 0.0 2.0 18 18
+ 0.595 0 1 cbr 512 ------- 2 0.0 2.0 19 19
d 0.595 0 1 cbr 512 ------- 2 0.0 2.0 19 19
+ 0.6 0 1 cbr 512 ------- 2 0.0 2.0 20 20
d 0.6 0 1 cbr 512 ------- 2 0.0 2.0 20 20
r 0.60192 0 1 cbr 512 ------- 2 0.0 2.0 1 1
+ 0.60192 1 2 cbr 512 ------- 2 0.0 2.0 1 1
- 0.60192 1 2 cbr 512 ------- 2 0.0 2.0 1 1
+ 0.605 0 1 cbr 512 ------- 2 0.0 2.0 21 21
d 0.605 0 1 cbr 512 ------- 2 0.0 2.0 21 21
+ 0.61 0 1 cbr 512 ------- 2 0.0 2.0 22 22
d 0.61 0 1 cbr 512 ------- 2 0.0 2.0 22 22
+ 0.615 0 1 cbr 512 ------- 2 0.0 2.0 23 23
d 0.615 0 1 cbr 512 ------- 2 0.0 2.0 23 23
+ 0.62 0 1 cbr 512 ------- 2 0.0 2.0 24 24
d 0.62 0 1 cbr 512 ------- 2 0.0 2.0 24 24
r 0.62192 1 2 cbr 512 ------- 2 0.0 2.0 0 0
- 0.62288 0 1 cbr 512 ------- 2 0.0 2.0 3 3
+ 0.625 0 1 cbr 512 ------- 2 0.0 2.0 25 25
+ 0.63 0 1 cbr 512 ------- 2 0.0 2.0 26 26
d 0.63 0 1 cbr 512 ------- 2 0.0 2.0 26 26
+ 0.635 0 1 cbr 512 ------- 2 0.0 2.0 27 27
d 0.635 0 1 cbr 512 ------- 2 0.0 2.0 27 27
+ 0.64 0 1 cbr 512 ------- 2 0.0 2.0 28 28
d 0.64 0 1 cbr 512 ------- 2 0.0 2.0 28 28
r 0.64288 0 1 cbr 512 ------- 2 0.0 2.0 2 2
+ 0.64288 1 2 cbr 512 ------- 2 0.0 2.0 2 2
- 0.64288 1 2 cbr 512 ------- 2 0.0 2.0 2 2
+ 0.645 0 1 cbr 512 ------- 2 0.0 2.0 29 29
d 0.645 0 1 cbr 512 ------- 2 0.0 2.0 29 29
+ 0.65 0 1 cbr 512 ------- 2 0.0 2.0 30 30
d 0.65 0 1 cbr 512 ------- 2 0.0 2.0 30 30
+ 0.655 0 1 cbr 512 ------- 2 0.0 2.0 31 31
d 0.655 0 1 cbr 512 ------- 2 0.0 2.0 31 31
+ 0.66 0 1 cbr 512 ------- 2 0.0 2.0 32 32
d 0.66 0 1 cbr 512 ------- 2 0.0 2.0 32 32
r 0.66288 1 2 cbr 512 ------- 2 0.0 2.0 1 1
- 0.66384 0 1 cbr 512 ------- 2 0.0 2.0 4 4
+ 0.665 0 1 cbr 512 ------- 2 0.0 2.0 33 33
+ 0.67 0 1 cbr 512 ------- 2 0.0 2.0 34 34
d 0.67 0 1 cbr 512 ------- 2 0.0 2.0 34 34
+ 0.675 0 1 cbr 512 ------- 2 0.0 2.0 35 35
d 0.675 0 1 cbr 512 ------- 2 0.0 2.0 35 35
+ 0.68 0 1 cbr 512 ------- 2 0.0 2.0 36 36
d 0.68 0 1 cbr 512 ------- 2 0.0 2.0 36 36
r 0.68384 0 1 cbr 512 ------- 2 0.0 2.0 3 3
+ 0.68384 1 2 cbr 512 ------- 2 0.0 2.0 3 3
- 0.68384 1 2 cbr 512 ------- 2 0.0 2.0 3 3
+ 0.685 0 1 cbr 512 ------- 2 0.0 2.0 37 37
d 0.685 0 1 cbr 512 ------- 2 0.0 2.0 37 37
+ 0.69 0 1 cbr 512 ------- 2 0.0 2.0 38 38
d 0.69 0 1 cbr 512 ------- 2 0.0 2.0 38 38
+ 0.695 0 1 cbr 512 ------- 2 0.0 2.0 39 39
d 0.695 0 1 cbr 512 ------- 2 0.0 2.0 39 39
+ 0.7 0 1 cbr 512 ------- 2 0.0 2.0 40 40
d 0.7 0 1 cbr 512 ------- 2 0.0 2.0 40 40
r 0.70384 1 2 cbr 512 ------- 2 0.0 2.0 2 2
- 0.7048 0 1 cbr 512 ------- 2 0.0 2.0 5 5
+ 0.705 0 1 cbr 512 ------- 2 0.0 2.0 41 41
+ 0.71 0 1 cbr 512 ------- 2 0.0 2.0 42 42
d 0.71 0 1 cbr 512 ------- 2 0.0 2.0 42 42
+ 0.715 0 1 cbr 512 ------- 2 0.0 2.0 43 43
d 0.715 0 1 cbr 512 ------- 2 0.0 2.0 43 43
+ 0.72 0 1 cbr 512 ------- 2 0.0 2.0 44 44
d 0.72 0 1 cbr 512 ------- 2 0.0 2.0 44 44
r 0.7248 0 1 cbr 512 ------- 2 0.0 2.0 4 4
+ 0.7248 1 2 cbr 512 ------- 2 0.0 2.0 4 4
- 0.7248 1 2 cbr 512 ------- 2 0.0 2.0 4 4
+ 0.725 0 1 cbr 512 ------- 2 0.0 2.0 45 45
d 0.725 0 1 cbr 512 ------- 2 0.0 2.0 45 45
+ 0.73 0 1 cbr 512 ------- 2 0.0 2.0 46 46
d 0.73 0 1 cbr 512 ------- 2 0.0 2.0 46 46
+ 0.735 0 1 cbr 512 ------- 2 0.0 2.0 47 47
d 0.735 0 1 cbr 512 ------- 2 0.0 2.0 47 47
+ 0.74 0 1 cbr 512 ------- 2 0.0 2.0 48 48
d 0.74 0 1 cbr 512 ------- 2 0.0 2.0 48 48
r 0.7448 1 2 cbr 512 ------- 2 0.0 2.0 3 3
+ 0.745 0 1 cbr 512 ------- 2 0.0 2.0 49 49
d 0.745 0 1 cbr 512 ------- 2 0.0 2.0 49 49
- 0.74576 0 1 cbr 512 ------- 2 0.0 2.0 6 6
+ 0.75 0 1 cbr 512 ------- 2 0.0 2.0 50 50
+ 0.755 0 1 cbr 512 ------- 2 0.0 2.0 51 51
d 0.755 0 1 cbr 512 ------- 2 0.0 2.0 51 51
+ 0.76 0 1 cbr 512 ------- 2 0.0 2.0 52 52
d 0.76 0 1 cbr 512 ------- 2 0.0 2.0 52 52
+ 0.765 0 1 cbr 512 ------- 2 0.0 2.0 53 53
d 0.765 0 1 cbr 512 ------- 2 0.0 2.0 53 53
r 0.76576 0 1 cbr 512 ------- 2 0.0 2.0 5 5
+ 0.76576 1 2 cbr 512 ------- 2 0.0 2.0 5 5
- 0.76576 1 2 cbr 512 ------- 2 0.0 2.0 5 5
+ 0.77 0 1 cbr 512 ------- 2 0.0 2.0 54 54
d 0.77 0 1 cbr 512 ------- 2 0.0 2.0 54 54
+ 0.775 0 1 cbr 512 ------- 2 0.0 2.0 55 55
d 0.775 0 1 cbr 512 ------- 2 0.0 2.0 55 55
+ 0.78 0 1 cbr 512 ------- 2 0.0 2.0 56 56
d 0.78 0 1 cbr 512 ------- 2 0.0 2.0 56 56
+ 0.785 0 1 cbr 512 ------- 2 0.0 2.0 57 57
d 0.785 0 1 cbr 512 ------- 2 0.0 2.0 57 57
r 0.78576 1 2 cbr 512 ------- 2 0.0 2.0 4 4
- 0.78672 0 1 cbr 512 ------- 2 0.0 2.0 7 7
+ 0.79 0 1 cbr 512 ------- 2 0.0 2.0 58 58
+ 0.795 0 1 cbr 512 ------- 2 0.0 2.0 59 59
d 0.795 0 1 cbr 512 ------- 2 0.0 2.0 59 59
+ 0.8 0 1 cbr 512 ------- 2 0.0 2.0 60 60
d 0.8 0 1 cbr 512 ------- 2 0.0 2.0 60 60
+ 0.805 0 1 cbr 512 ------- 2 0.0 2.0 61 61
d 0.805 0 1 cbr 512 ------- 2 0.0 2.0 61 61
r 0.80672 0 1 cbr 512 ------- 2 0.0 2.0 6 6
+ 0.80672 1 2 cbr 512 ------- 2 0.0 2.0 6 6
- 0.80672 1 2 cbr 512 ------- 2 0.0 2.0 6 6
+ 0.81 0 1 cbr 512 ------- 2 0.0 2.0 62 62
d 0.81 0 1 cbr 512 ------- 2 0.0 2.0 62 62
+ 0.815 0 1 cbr 512 ------- 2 0.0 2.0 63 63
d 0.815 0 1 cbr 512 ------- 2 0.0 2.0 63 63
+ 0.82 0 1 cbr 512 ------- 2 0.0 2.0 64 64
d 0.82 0 1 cbr 512 ------- 2 0.0 2.0 64 64
+ 0.825 0 1 cbr 512 ------- 2 0.0 2.0 65 65
d 0.825 0 1 cbr 512 ------- 2 0.0 2.0 65 65
r 0.82672 1 2 cbr 512 ------- 2 0.0 2.0 5 5
- 0.82768 0 1 cbr 512 ------- 2 0.0 2.0 8 8
+ 0.83 0 1 cbr 512 ------- 2 0.0 2.0 66 66
+ 0.835 0 1 cbr 512 ------- 2 0.0 2.0 67 67
d 0.835 0 1 cbr 512 ------- 2 0.0 2.0 67 67
+ 0.84 0 1 cbr 512 ------- 2 0.0 2.0 68 68
d 0.84 0 1 cbr 512 ------- 2 0.0 2.0 68 68
+ 0.845 0 1 cbr 512 ------- 2 0.0 2.0 69 69
d 0.845 0 1 cbr 512 ------- 2 0.0 2.0 69 69
r 0.84768 0 1 cbr 512 ------- 2 0.0 2.0 7 7
+ 0.84768 1 2 cbr 512 ------- 2 0.0 2.0 7 7
- 0.84768 1 2 cbr 512 ------- 2 0.0 2.0 7 7
+ 0.85 0 1 cbr 512 ------- 2 0.0 2.0 70 70
d 0.85 0 1 cbr 512 ------- 2 0.0 2.0 70 70
+ 0.855 0 1 cbr 512 ------- 2 0.0 2.0 71 71
d 0.855 0 1 cbr 512 ------- 2 0.0 2.0 71 71
+ 0.86 0 1 cbr 512 ------- 2 0.0 2.0 72 72
d 0.86 0 1 cbr 512 ------- 2 0.0 2.0 72 72
+ 0.865 0 1 cbr 512 ------- 2 0.0 2.0 73 73
d 0.865 0 1 cbr 512 ------- 2 0.0 2.0 73 73
r 0.86768 1 2 cbr 512 ------- 2 0.0 2.0 6 6
- 0.86864 0 1 cbr 512 ------- 2 0.0 2.0 9 9
+ 0.87 0 1 cbr 512 ------- 2 0.0 2.0 74 74
+ 0.875 0 1 cbr 512 ------- 2 0.0 2.0 75 75
d 0.875 0 1 cbr 512 ------- 2 0.0 2.0 75 75
+ 0.88 0 1 cbr 512 ------- 2 0.0 2.0 76 76
d 0.88 0 1 cbr 512 ------- 2 0.0 2.0 76 76
+ 0.885 0 1 cbr 512 ------- 2 0.0 2.0 77 77
d 0.885 0 1 cbr 512 ------- 2 0.0 2.0 77 77
r 0.88864 0 1 cbr 512 ------- 2 0.0 2.0 8 8
+ 0.88864 1 2 cbr 512 ------- 2 0.0 2.0 8 8
- 0.88864 1 2 cbr 512 ------- 2 0.0 2.0 8 8
+ 0.89 0 1 cbr 512 ------- 2 0.0 2.0 78 78
d 0.89 0 1 cbr 512 ------- 2 0.0 2.0 78 78
+ 0.895 0 1 cbr 512 ------- 2 0.0 2.0 79 79
d 0.895 0 1 cbr 512 ------- 2 0.0 2.0 79 79
+ 0.9 0 1 cbr 512 ------- 2 0.0 2.0 80 80
d 0.9 0 1 cbr 512 ------- 2 0.0 2.0 80 80
+ 0.905 0 1 cbr 512 ------- 2 0.0 2.0 81 81
d 0.905 0 1 cbr 512 ------- 2 0.0 2.0 81 81
r 0.90864 1 2 cbr 512 ------- 2 0.0 2.0 7 7
- 0.9096 0 1 cbr 512 ------- 2 0.0 2.0 10 10
+ 0.91 0 1 cbr 512 ------- 2 0.0 2.0 82 82
+ 0.915 0 1 cbr 512 ------- 2 0.0 2.0 83 83
d 0.915 0 1 cbr 512 ------- 2 0.0 2.0 83 83
+ 0.92 0 1 cbr 512 ------- 2 0.0 2.0 84 84
d 0.92 0 1 cbr 512 ------- 2 0.0 2.0 84 84
+ 0.925 0 1 cbr 512 ------- 2 0.0 2.0 85 85
d 0.925 0 1 cbr 512 ------- 2 0.0 2.0 85 85
r 0.9296 0 1 cbr 512 ------- 2 0.0 2.0 9 9
+ 0.9296 1 2 cbr 512 ------- 2 0.0 2.0 9 9
- 0.9296 1 2 cbr 512 ------- 2 0.0 2.0 9 9
+ 0.93 0 1 cbr 512 ------- 2 0.0 2.0 86 86
d 0.93 0 1 cbr 512 ------- 2 0.0 2.0 86 86
+ 0.935 0 1 cbr 512 ------- 2 0.0 2.0 87 87
d 0.935 0 1 cbr 512 ------- 2 0.0 2.0 87 87
+ 0.94 0 1 cbr 512 ------- 2 0.0 2.0 88 88
d 0.94 0 1 cbr 512 ------- 2 0.0 2.0 88 88
+ 0.945 0 1 cbr 512 ------- 2 0.0 2.0 89 89
d 0.945 0 1 cbr 512 ------- 2 0.0 2.0 89 89
r 0.9496 1 2 cbr 512 ------- 2 0.0 2.0 8 8
+ 0.95 0 1 cbr 512 ------- 2 0.0 2.0 90 90
d 0.95 0 1 cbr 512 ------- 2 0.0 2.0 90 90
- 0.95056 0 1 cbr 512 ------- 2 0.0 2.0 17 17
+ 0.955 0 1 cbr 512 ------- 2 0.0 2.0 91 91
+ 0.96 0 1 cbr 512 ------- 2 0.0 2.0 92 92
d 0.96 0 1 cbr 512 ------- 2 0.0 2.0 92 92
+ 0.965 0 1 cbr 512 ------- 2 0.0 2.0 93 93
d 0.965 0 1 cbr 512 ------- 2 0.0 2.0 93 93
+ 0.97 0 1 cbr 512 ------- 2 0.0 2.0 94 94
d 0.97 0 1 cbr 512 ------- 2 0.0 2.0 94 94
r 0.97056 0 1 cbr 512 ------- 2 0.0 2.0 10 10
+ 0.97056 1 2 cbr 512 ------- 2 0.0 2.0 10 10
- 0.97056 1 2 cbr 512 ------- 2 0.0 2.0 10 10
+ 0.975 0 1 cbr 512 ------- 2 0.0 2.0 95 95
d 0.975 0 1 cbr 512 ------- 2 0.0 2.0 95 95
+ 0.98 0 1 cbr 512 ------- 2 0.0 2.0 96 96
d 0.98 0 1 cbr 512 ------- 2 0.0 2.0 96 96
+ 0.985 0 1 cbr 512 ------- 2 0.0 2.0 97 97
d 0.985 0 1 cbr 512 ------- 2 0.0 2.0 97 97
+ 0.99 0 1 cbr 512 ------- 2 0.0 2.0 98 98
d 0.99 0 1 cbr 512 ------- 2 0.0 2.0 98 98
r 0.99056 1 2 cbr 512 ------- 2 0.0 2.0 9 9
- 0.99152 0 1 cbr 512 ------- 2 0.0 2.0 25 25
+ 0.995 0 1 cbr 512 ------- 2 0.0 2.0 99 99
+ 1 0 1 cbr 512 ------- 2 0.0 2.0 100 100
d 1 0 1 cbr 512 ------- 2 0.0 2.0 100 100
+ 1.005 0 1 cbr 512 ------- 2 0.0 2.0 101 101
d 1.005 0 1 cbr 512 ------- 2 0.0 2.0 101 101
+ 1.01 0 1 cbr 512 ------- 2 0.0 2.0 102 102
d 1.01 0 1 cbr 512 ------- 2 0.0 2.0 102 102
r 1.01152 0 1 cbr 512 ------- 2 0.0 2.0 17 17
+ 1.01152 1 2 cbr 512 ------- 2 0.0 2.0 17 17
- 1.01152 1 2 cbr 512 ------- 2 0.0 2.0 17 17
+ 1.015 0 1 cbr 512 ------- 2 0.0 2.0 103 103
d 1.015 0 1 cbr 512 ------- 2 0.0 2.0 103 103
+ 1.02 0 1 cbr 512 ------- 2 0.0 2.0 104 104
d 1.02 0 1 cbr 512 ------- 2 0.0 2.0 104 104
+ 1.025 0 1 cbr 512 ------- 2 0.0 2.0 105 105
d 1.025 0 1 cbr 512 ------- 2 0.0 2.0 105 105
+ 1.03 0 1 cbr 512 ------- 2 0.0 2.0 106 106
d 1.03 0 1 cbr 512 ------- 2 0.0 2.0 106 106
r 1.03152 1 2 cbr 512 ------- 2 0.0 2.0 10 10
- 1.03248 0 1 cbr 512 ------- 2 0.0 2.0 33 33
+ 1.035 0 1 cbr 512 ------- 2 0.0 2.0 107 107
+ 1.04 0 1 cbr 512 ------- 2 0.0 2.0 108 108
d 1.04 0 1 cbr 512 ------- 2 0.0 2.0 108 108
+ 1.045 0 1 cbr 512 ------- 2 0.0 2.0 109 109
d 1.045 0 1 cbr 512 ------- 2 0.0 2.0 109 109
+ 1.05 0 1 cbr 512 ------- 2 0.0 2.0 110 110
d 1.05 0 1 cbr 512 ------- 2 0.0 2.0 110 110
r 1.05248 0 1 cbr 512 ------- 2 0.0 2.0 25 25
+ 1.05248 1 2 cbr 512 ------- 2 0.0 2.0 25 25
- 1.05248 1 2 cbr 512 ------- 2 0.0 2.0 25 25
+ 1.055 0 1 cbr 512 ------- 2 0.0 2.0 111 111
d 1.055 0 1 cbr 512 ------- 2 0.0 2.0 111 111
+ 1.06 0 1 cbr 512 ------- 2 0.0 2.0 112 112
d 1.06 0 1 cbr 512 ------- 2 0.0 2.0 112 112
+ 1.065 0 1 cbr 512 ------- 2 0.0 2.0 113 113
d 1.065 0 1 cbr 512 ------- 2 0.0 2.0 113 113
+ 1.07 0 1 cbr 512 ------- 2 0.0 2.0 114 114
d 1.07 0 1 cbr 512 ------- 2 0.0 2.0 114 114
r 1.07248 1 2 cbr 512 ------- 2 0.0 2.0 17 17
- 1.07344 0 1 cbr 512 ------- 2 0.0 2.0 41 41
+ 1.075 0 1 cbr 512 ------- 2 0.0 2.0 115 115
+ 1.08 0 1 cbr 512 ------- 2 0.0 2.0 116 116
d 1.08 0 1 cbr 512 ------- 2 0.0 2.0 116 116
+ 1.085 0 1 cbr 512 ------- 2 0.0 2.0 117 117
d 1.085 0 1 cbr 512 ------- 2 0.0 2.0 117 117
+ 1.09 0 1 cbr 512 ------- 2 0.0 2.0 118 118
d 1.09 0 1 cbr 512 ------- 2 0.0 2.0 118 118
r 1.09344 0 1 cbr 512 ------- 2 0.0 2.0 33 33
+ 1.09344 1 2 cbr 512 ------- 2 0.0 2.0 33 33
- 1.09344 1 2 cbr 512 ------- 2 0.0 2.0 33 33
+ 1.095 0 1 cbr 512 ------- 2 0.0 2.0 119 119
d 1.095 0 1 cbr 512 ------- 2 0.0 2.0 119 119
+ 1.1 0 1 cbr 512 ------- 2 0.0 2.0 120 120
d 1.1 0 1 cbr 512 ------- 2 0.0 2.0 120 120
+ 1.105 0 1 cbr 512 ------- 2 0.0 2.0 121 121
d 1.105 0 1 cbr 512 ------- 2 0.0 2.0 121 121
+ 1.11 0 1 cbr 512 ------- 2 0.0 2.0 122 122
d 1.11 0 1 cbr 512 ------- 2 0.0 2.0 122 122
r 1.11344 1 2 cbr 512 ------- 2 0.0 2.0 25 25
- 1.1144 0 1 cbr 512 ------- 2 0.0 2.0 50 50
+ 1.115 0 1 cbr 512 ------- 2 0.0 2.0 123 123
+ 1.12 0 1 cbr 512 ------- 2 0.0 2.0 124 124
d 1.12 0 1 cbr 512 ------- 2 0.0 2.0 124 124
+ 1.125 0 1 cbr 512 ------- 2 0.0 2.0 125 125
d 1.125 0 1 cbr 512 ------- 2 0.0 2.0 125 125
+ 1.13 0 1 cbr 512 ------- 2 0.0 2.0 126 126
d 1.13 0 1 cbr 512 ------- 2 0.0 2.0 126 126
r 1.1344 0 1 cbr 512 ------- 2 0.0 2.0 41 41
+ 1.1344 1 2 cbr 512 ------- 2 0.0 2.0 41 41
- 1.1344 1 2 cbr 512 ------- 2 0.0 2.0 41 41
+ 1.135 0 1 cbr 512 ------- 2 0.0 2.0 127 127
d 1.135 0 1 cbr 512 ------- 2 0.0 2.0 127 127
+ 1.14 0 1 cbr 512 ------- 2 0.0 2.0 128 128
d 1.14 0 1 cbr 512 ------- 2 0.0 2.0 128 128
+ 1.145 0 1 cbr 512 ------- 2 0.0 2.0 129 129
d 1.145 0 1 cbr 512 ------- 2 0.0 2.0 129 129
+ 1.15 0 1 cbr 512 ------- 2 0.0 2.0 130 130
d 1.15 0 1 cbr 512 ------- 2 0.0 2.0 130 130
r 1.1544 1 2 cbr 512 ------- 2 0.0 2.0 33 33
+ 1.155 0 1 cbr 512 ------- 2 0.0 2.0 131 131
d 1.155 0 1 cbr 512 ------- 2 0.0 2.0 131 131
- 1.15536 0 1 cbr 512 ------- 2 0.0 2.0 58 58
+ 1.16 0 1 cbr 512 ------- 2 0.0 2.0 132 132
+ 1.165 0 1 cbr 512 ------- 2 0.0 2.0 133 133
d 1.165 0 1 cbr 512 ------- 2 0.0 2.0 133 133
+ 1.17 0 1 cbr 512 ------- 2 0.0 2.0 134 134
d 1.17 0 1 cbr 512 ------- 2 0.0 2.0 134 134
+ 1.175 0 1 cbr 512 ------- 2 0.0 2.0 135 135
d 1.175 0 1 cbr 512 ------- 2 0.0 2.0 135 135
r 1.17536 0 1 cbr 512 ------- 2 0.0 2.0 50 50
+ 1.17536 1 2 cbr 512 ------- 2 0.0 2.0 50 50
- 1.17536 1 2 cbr 512 ------- 2 0.0 2.0 50 50
+ 1.18 0 1 cbr 512 ------- 2 0.0 2.0 136 136
d 1.18 0 1 cbr 512 ------- 2 0.0 2.0 136 136
+ 1.185 0 1 cbr 512 ------- 2 0.0 2.0 137 137
d 1.185 0 1 cbr 512 ------- 2 0.0 2.0 137 137
+ 1.19 0 1 cbr 512 ------- 2 0.0 2.0 138 138
d 1.19 0 1 cbr 512 ------- 2 0.0 2.0 138 138
+ 1.195 0 1 cbr 512 ------- 2 0.0 2.0 139 139
d 1.195 0 1 cbr 512 ------- 2 0.0 2.0 139 139
r 1.19536 1 2 cbr 512 ------- 2 0.0 2.0 41 41
- 1.19632 0 1 cbr 512 ------- 2 0.0 2.0 66 66
+ 1.2 0 1 cbr 512 ------- 2 0.0 2.0 140 140
+ 1.205 0 1 cbr 512 ------- 2 0.0 2.0 141 141
d 1.205 0 1 cbr 512 ------- 2 0.0 2.0 141 141
+ 1.21 0 1 cbr 512 ------- 2 0.0 2.0 142 142
d 1.21 0 1 cbr 512 ------- 2 0.0 2.0 142 142
+ 1.215 0 1 cbr 512 ------- 2 0.0 2.0 143 143
d 1.215 0 1 cbr 512 ------- 2 0.0 2.0 143 143
r 1.21632 0 1 cbr 512 ------- 2 0.0 2.0 58 58
+ 1.21632 1 2 cbr 512 ------- 2 0.0 2.0 58 58
- 1.21632 1 2 cbr 512 ------- 2 0.0 2.0 58 58
+ 1.22 0 1 cbr 512 ------- 2 0.0 2.0 144 144
d 1.22 0 1 cbr 512 ------- 2 0.0 2.0 144 144
+ 1.225 0 1 cbr 512 ------- 2 0.0 2.0 145 145
d 1.225 0 1 cbr 512 ------- 2 0.0 2.0 145 145
+ 1.23 0 1 cbr 512 ------- 2 0.0 2.0 146 146
d 1.23 0 1 cbr 512 ------- 2 0.0 2.0 146 146
+ 1.235 0 1 cbr 512 ------- 2 0.0 2.0 147 147
d 1.235 0 1 cbr 512 ------- 2 0.0 2.0 147 147
r 1.23632 1 2 cbr 512 ------- 2 0.0 2.0 50 50
- 1.23728 0 1 cbr 512 ------- 2 0.0 2.0 74 74
+ 1.24 0 1 cbr 512 ------- 2 0.0 2.0 148 148
+ 1.245 0 1 cbr 512 ------- 2 0.0 2.0 149 149
d 1.245 0 1 cbr 512 ------- 2 0.0 2.0 149 149
+ 1.25 0 1 cbr 512 ------- 2 0.0 2.0 150 150
d 1.25 0 1 cbr 512 ------- 2 0.0 2.0 150 150
+ 1.255 0 1 cbr 512 ------- 2 0.0 2.0 151 151
d 1.255 0 1 cbr 512 ------- 2 0.0 2.0 151 151
r 1.25728 0 1 cbr 512 ------- 2 0.0 2.0 66 66
+ 1.25728 1 2 cbr 512 ------- 2 0.0 2.0 66 66
- 1.25728 1 2 cbr 512 ------- 2 0.0 2.0 66 66
+ 1.26 0 1 cbr 512 ------- 2 0.0 2.0 152 152
d 1.26 0 1 cbr 512 ------- 2 0.0 2.0 152 152
+ 1.265 0 1 cbr 512 ------- 2 0.0 2.0 153 153
d 1.265 0 1 cbr 512 ------- 2 0.0 2.0 153 153
+ 1.27 0 1 cbr 512 ------- 2 0.0 2.0 154 154
d 1.27 0 1 cbr 512 ------- 2 0.0 2.0 154 154
+ 1.275 0 1 cbr 512 ------- 2 0.0 2.0 155 155
d 1.275 0 1 cbr 512 ------- 2 0.0 2.0 155 155
r 1.27728 1 2 cbr 512 ------- 2 0.0 2.0 58 58
- 1.27824 0 1 cbr 512 ------- 2 0.0 2.0 82 82
+ 1.28 0 1 cbr 512 ------- 2 0.0 2.0 156 156
+ 1.285 0 1 cbr 512 ------- 2 0.0 2.0 157 157
d 1.285 0 1 cbr 512 ------- 2 0.0 2.0 157 157
+ 1.29 0 1 cbr 512 ------- 2 0.0 2.0 158 158
d 1.29 0 1 cbr 512 ------- 2 0.0 2.0 158 158
+ 1.295 0 1 cbr 512 ------- 2 0.0 2.0 159 159
d 1.295 0 1 cbr 512 ------- 2 0.0 2.0 159 159
r 1.29824 0 1 cbr 512 ------- 2 0.0 2.0 74 74
+ 1.29824 1 2 cbr 512 ------- 2 0.0 2.0 74 74
- 1.29824 1 2 cbr 512 ------- 2 0.0 2.0 74 74
+ 1.3 0 1 cbr 512 ------- 2 0.0 2.0 160 160
d 1.3 0 1 cbr 512 ------- 2 0.0 2.0 160 160
+ 1.305 0 1 cbr 512 ------- 2 0.0 2.0 161 161
d 1.305 0 1 cbr 512 ------- 2 0.0 2.0 161 161
+ 1.31 0 1 cbr 512 ------- 2 0.0 2.0 162 162
d 1.31 0 1 cbr 512 ------- 2 0.0 2.0 162 162
+ 1.315 0 1 cbr 512 ------- 2 0.0 2.0 163 163
d 1.315 0 1 cbr 512 ------- 2 0.0 2.0 163 163
r 1.31824 1 2 cbr 512 ------- 2 0.0 2.0 66 66
- 1.3192 0 1 cbr 512 ------- 2 0.0 2.0 91 91
+ 1.32 0 1 cbr 512 ------- 2 0.0 2.0 164 164
+ 1.325 0 1 cbr 512 ------- 2 0.0 2.0 165 165
d 1.325 0 1 cbr 512 ------- 2 0.0 2.0 165 165
+ 1.33 0 1 cbr 512 ------- 2 0.0 2.0 166 166
d 1.33 0 1 cbr 512 ------- 2 0.0 2.0 166 166
+ 1.335 0 1 cbr 512 ------- 2 0.0 2.0 167 167
d 1.335 0 1 cbr 512 ------- 2 0.0 2.0 167 167
r 1.3392 0 1 cbr 512 ------- 2 0.0 2.0 82 82
+ 1.3392 1 2 cbr 512 ------- 2 0.0 2.0 82 82
- 1.3392 1 2 cbr 512 ------- 2 0.0 2.0 82 82
+ 1.34 0 1 cbr 512 ------- 2 0.0 2.0 168 168
d 1.34 0 1 cbr 512 ------- 2 0.0 2.0 168 168
+ 1.345 0 1 cbr 512 ------- 2 0.0 2.0 169 169
d 1.345 0 1 cbr 512 ------- 2 0.0 2.0 169 169
+ 1.35 0 1 cbr 512 ------- 2 0.0 2.0 170 170
d 1.35 0 1 cbr 512 ------- 2 0.0 2.0 170 170
+ 1.355 0 1 cbr 512 ------- 2 0.0 2.0 171 171
d 1.355 0 1 cbr 512 ------- 2 0.0 2.0 171 171
r 1.3592 1 2 cbr 512 ------- 2 0.0 2.0 74 74
+ 1.36 0 1 cbr 512 ------- 2 0.0 2.0 172 172
d 1.36 0 1 cbr 512 ------- 2 0.0 2.0 172 172
- 1.36016 0 1 cbr 512 ------- 2 0.0 2.0 99 99
+ 1.365 0 1 cbr 512 ------- 2 0.0 2.0 173 173
+ 1.37 0 1 cbr 512 ------- 2 0.0 2.0 174 174
d 1.37 0 1 cbr 512 ------- 2 0.0 2.0 174 174
+ 1.375 0 1 cbr 512 ------- 2 0.0 2.0 175 175
d 1.375 0 1 cbr 512 ------- 2 0.0 2.0 175 175
+ 1.38 0 1 cbr 512 ------- 2 0.0 2.0 176 176
d 1.38 0 1 cbr 512 ------- 2 0.0 2.0 176 176
r 1.38016 0 1 cbr 512 ------- 2 0.0 2.0 91 91
+ 1.38016 1 2 cbr 512 ------- 2 0.0 2.0 91 91
- 1.38016 1 2 cbr 512 ------- 2 0.0 2.0 91 91
+ 1.385 0 1 cbr 512 ------- 2 0.0 2.0 177 177
d 1.385 0 1 cbr 512 ------- 2 0.0 2.0 177 177
+ 1.39 0 1 cbr 512 ------- 2 0.0 2.0 178 178
d 1.39 0 1 cbr 512 ------- 2 0.0 2.0 178 178
+ 1.395 0 1 cbr 512 ------- 2 0.0 2.0 179 179
d 1.395 0 1 cbr 512 ------- 2 0.0 2.0 179 179
+ 1.4 0 1 cbr 512 ------- 2 0.0 2.0 180 180
d 1.4 0 1 cbr 512 ------- 2 0.0 2.0 180 180
r 1.40016 1 2 cbr 512 ------- 2 0.0 2.0 82 82
- 1.40112 0 1 cbr 512 ------- 2 0.0 2.0 107 107
+ 1.405 0 1 cbr 512 ------- 2 0.0 2.0 181 181
+ 1.41 0 1 cbr 512 ------- 2 0.0 2.0 182 182
d 1.41 0 1 cbr 512 ------- 2 0.0 2.0 182 182
+ 1.415 0 1 cbr 512 ------- 2 0.0 2.0 183 183
d 1.415 0 1 cbr 512 ------- 2 0.0 2.0 183 183
+ 1.42 0 1 cbr 512 ------- 2 0.0 2.0 184 184
d 1.42 0 1 cbr 512 ------- 2 0.0 2.0 184 184
r 1.42112 0 1 cbr 512 ------- 2 0.0 2.0 99 99
+ 1.42112 1 2 cbr 512 ------- 2 0.0 2.0 99 99
- 1.42112 1 2 cbr 512 ------- 2 0.0 2.0 99 99
+ 1.425 0 1 cbr 512 ------- 2 0.0 2.0 185 185
d 1.425 0 1 cbr 512 ------- 2 0.0 2.0 185 185
+ 1.43 0 1 cbr 512 ------- 2 0.0 2.0 186 186
d 1.43 0 1 cbr 512 ------- 2 0.0 2.0 186 186
+ 1.435 0 1 cbr 512 ------- 2 0.0 2.0 187 187
d 1.435 0 1 cbr 512 ------- 2 0.0 2.0 187 187
+ 1.44 0 1 cbr 512 ------- 2 0.0 2.0 188 188
d 1.44 0 1 cbr 512 ------- 2 0.0 2.0 188 188
r 1.44112 1 2 cbr 512 ------- 2 0.0 2.0 91 91
- 1.44208 0 1 cbr 512 ------- 2 0.0 2.0 115 115
+ 1.445 0 1 cbr 512 ------- 2 0.0 2.0 189 189
+ 1.45 0 1 cbr 512 ------- 2 0.0 2.0 190 190
d 1.45 0 1 cbr 512 ------- 2 0.0 2.0 190 190
+ 1.455 0 1 cbr 512 ------- 2 0.0 2.0 191 191
d 1.455 0 1 cbr 512 ------- 2 0.0 2.0 191 191
+ 1.46 0 1 cbr 512 ------- 2 0.0 2.0 192 192
d 1.46 0 1 cbr 512 ------- 2 0.0 2.0 192 192
r 1.46208 0 1 cbr 512 ------- 2 0.0 2.0 107 107
+ 1.46208 1 2 cbr 512 ------- 2 0.0 2.0 107 107
- 1.46208 1 2 cbr 512 ------- 2 0.0 2.0 107 107
+ 1.465 0 1 cbr 512 ------- 2 0.0 2.0 193 193
d 1.465 0 1 cbr 512 ------- 2 0.0 2.0 193 193
+ 1.47 0 1 cbr 512 ------- 2 0.0 2.0 194 194
d 1.47 0 1 cbr 512 ------- 2 0.0 2.0 194 194
+ 1.475 0 1 cbr 512 ------- 2 0.0 2.0 195 195
d 1.475 0 1 cbr 512 ------- 2 0.0 2.0 195 195
+ 1.48 0 1 cbr 512 ------- 2 0.0 2.0 196 196
d 1.48 0 1 cbr 512 ------- 2 0.0 2.0 196 196
r 1.48208 1 2 cbr 512 ------- 2 0.0 2.0 99 99
- 1.48304 0 1 cbr 512 ------- 2 0.0 2.0 123 123
+ 1.485 0 1 cbr 512 ------- 2 0.0 2.0 197 197
+ 1.49 0 1 cbr 512 ------- 2 0.0 2.0 198 198
d 1.49 0 1 cbr 512 ------- 2 0.0 2.0 198 198
+ 1.495 0 1 cbr 512 ------- 2 0.0 2.0 199 199
d 1.495 0 1 cbr 512 ------- 2 0.0 2.0 199 199
+ 1.5 0 1 cbr 512 ------- 2 0.0 2.0 200 200
d 1.5 0 1 cbr 512 ------- 2 0.0 2.0 200 200
r 1.50304 0 1 cbr 512 ------- 2 0.0 2.0 115 115
+ 1.50304 1 2 cbr 512 ------- 2 0.0 2.0 115 115
- 1.50304 1 2 cbr 512 ------- 2 0.0 2.0 115 115
+ 1.505 0 1 cbr 512 ------- 2 0.0 2.0 201 201
d 1.505 0 1 cbr 512 ------- 2 0.0 2.0 201 201
+ 1.51 0 1 cbr 512 ------- 2 0.0 2.0 202 202
d 1.51 0 1 cbr 512 ------- 2 0.0 2.0 202 202
+ 1.515 0 1 cbr 512 ------- 2 0.0 2.0 203 203
d 1.515 0 1 cbr 512 ------- 2 0.0 2.0 203 203
+ 1.52 0 1 cbr 512 ------- 2 0.0 2.0 204 204
d 1.52 0 1 cbr 512 ------- 2 0.0 2.0 204 204
r 1.52304 1 2 cbr 512 ------- 2 0.0 2.0 107 107
- 1.524 0 1 cbr 512 ------- 2 0.0 2.0 132 132
+ 1.525 0 1 cbr 512 ------- 2 0.0 2.0 205 205
+ 1.53 0 1 cbr 512 ------- 2 0.0 2.0 206 206
d 1.53 0 1 cbr 512 ------- 2 0.0 2.0 206 206
+ 1.535 0 1 cbr 512 ------- 2 0.0 2.0 207 207
d 1.535 0 1 cbr 512 ------- 2 0.0 2.0 207 207
+ 1.54 0 1 cbr 512 ------- 2 0.0 2.0 208 208
d 1.54 0 1 cbr 512 ------- 2 0.0 2.0 208 208
r 1.544 0 1 cbr 512 ------- 2 0.0 2.0 123 123
+ 1.544 1 2 cbr 512 ------- 2 0.0 2.0 123 123
- 1.544 1 2 cbr 512 ------- 2 0.0 2.0 123 123
+ 1.545 0 1 cbr 512 ------- 2 0.0 2.0 209 209
d 1.545 0 1 cbr 512 ------- 2 0.0 2.0 209 209
+ 1.55 0 1 cbr 512 ------- 2 0.0 2.0 210 210
d 1.55 0 1 cbr 512 ------- 2 0.0 2.0 210 210
+ 1.555 0 1 cbr 512 ------- 2 0.0 2.0 211 211
d 1.555 0 1 cbr 512 ------- 2 0.0 2.0 211 211
+ 1.56 0 1 cbr 512 ------- 2 0.0 2.0 212 212
d 1.56 0 1 cbr 512 ------- 2 0.0 2.0 212 212
r 1.564 1 2 cbr 512 ------- 2 0.0 2.0 115 115
- 1.56496 0 1 cbr 512 ------- 2 0.0 2.0 140 140
+ 1.565 0 1 cbr 512 ------- 2 0.0 2.0 213 213
+ 1.57 0 1 cbr 512 ------- 2 0.0 2.0 214 214
d 1.57 0 1 cbr 512 ------- 2 0.0 2.0 214 214
+ 1.575 0 1 cbr 512 ------- 2 0.0 2.0 215 215
d 1.575 0 1 cbr 512 ------- 2 0.0 2.0 215 215
+ 1.58 0 1 cbr 512 ------- 2 0.0 2.0 216 216
d 1.58 0 1 cbr 512 ------- 2 0.0 2.0 216 216
r 1.58496 0 1 cbr 512 ------- 2 0.0 2.0 132 132
+ 1.58496 1 2 cbr 512 ------- 2 0.0 2.0 132 132
- 1.58496 1 2 cbr 512 ------- 2 0.0 2.0 132 132
+ 1.585 0 1 cbr 512 ------- 2 0.0 2.0 217 217
d 1.585 0 1 cbr 512 ------- 2 0.0 2.0 217 217
+ 1.59 0 1 cbr 512 ------- 2 0.0 2.0 218 218
d 1.59 0 1 cbr 512 ------- 2 0.0 2.0 218 218
+ 1.595 0 1 cbr 512 ------- 2 0.0 2.0 219 219
d 1.595 0 1 cbr 512 ------- 2 0.0 2.0 219 219
+ 1.6 0 1 cbr 512 ------- 2 0.0 2.0 220 220
d 1.6 0 1 cbr 512 ------- 2 0.0 2.0 220 220
r 1.60496 1 2 cbr 512 ------- 2 0.0 2.0 123 123
+ 1.605 0 1 cbr 512 ------- 2 0.0 2.0 221 221
d 1.605 0 1 cbr 512 ------- 2 0.0 2.0 221 221
- 1.60592 0 1 cbr 512 ------- 2 0.0 2.0 148 148
+ 1.61 0 1 cbr 512 ------- 2 0.0 2.0 222 222
+ 1.615 0 1 cbr 512 ------- 2 0.0 2.0 223 223
d 1.615 0 1 cbr 512 ------- 2 0.0 2.0 223 223
+ 1.62 0 1 cbr 512 ------- 2 0.0 2.0 224 224
d 1.62 0 1 cbr 512 ------- 2 0.0 2.0 224 224
+ 1.625 0 1 cbr 512 ------- 2 0.0 2.0 225 225
d 1.625 0 1 cbr 512 ------- 2 0.0 2.0 225 225
r 1.62592 0 1 cbr 512 ------- 2 0.0 2.0 140 140
+ 1.62592 1 2 cbr 512 ------- 2 0.0 2.0 140 140
- 1.62592 1 2 cbr 512 ------- 2 0.0 2.0 140 140
+ 1.63 0 1 cbr 512 ------- 2 0.0 2.0 226 226
d 1.63 0 1 cbr 512 ------- 2 0.0 2.0 226 226
+ 1.635 0 1 cbr 512 ------- 2 0.0 2.0 227 227
d 1.635 0 1 cbr 512 ------- 2 0.0 2.0 227 227
+ 1.64 0 1 cbr 512 ------- 2 0.0 2.0 228 228
d 1.64 0 1 cbr 512 ------- 2 0.0 2.0 228 228
+ 1.645 0 1 cbr 512 ------- 2 0.0 2.0 229 229
d 1.645 0 1 cbr 512 ------- 2 0.0 2.0 229 229
r 1.64592 1 2 cbr 512 ------- 2 0.0 2.0 132 132
- 1.64688 0 1 cbr 512 ------- 2 0.0 2.0 156 156
+ 1.65 0 1 cbr 512 ------- 2 0.0 2.0 230 230
+ 1.655 0 1 cbr 512 ------- 2 0.0 2.0 231 231
d 1.655 0 1 cbr 512 ------- 2 0.0 2.0 231 231
+ 1.66 0 1 cbr 512 ------- 2 0.0 2.0 232 232
d 1.66 0 1 cbr 512 ------- 2 0.0 2.0 232 232
+ 1.665 0 1 cbr 512 ------- 2 0.0 2.0 233 233
d 1.665 0 1 cbr 512 ------- 2 0.0 2.0 233 233
r 1.66688 0 1 cbr 512 ------- 2 0.0 2.0 148 148
+ 1.66688 1 2 cbr 512 ------- 2 0.0 2.0 148 148
- 1.66688 1 2 cbr 512 ------- 2 0.0 2.0 148 148
+ 1.67 0 1 cbr 512 ------- 2 0.0 2.0 234 234
d 1.67 0 1 cbr 512 ------- 2 0.0 2.0 234 234
+ 1.675 0 1 cbr 512 ------- 2 0.0 2.0 235 235
d 1.675 0 1 cbr 512 ------- 2 0.0 2.0 235 235
+ 1.68 0 1 cbr 512 ------- 2 0.0 2.0 236 236
d 1.68 0 1 cbr 512 ------- 2 0.0 2.0 236 236
+ 1.685 0 1 cbr 512 ------- 2 0.0 2.0 237 237
d 1.685 0 1 cbr 512 ------- 2 0.0 2.0 237 237
r 1.68688 1 2 cbr 512 ------- 2 0.0 2.0 140 140
- 1.68784 0 1 cbr 512 ------- 2 0.0 2.0 164 164
+ 1.69 0 1 cbr 512 ------- 2 0.0 2.0 238 238
+ 1.695 0 1 cbr 512 ------- 2 0.0 2.0 239 239
d 1.695 0 1 cbr 512 ------- 2 0.0 2.0 239 239
+ 1.7 0 1 cbr 512 ------- 2 0.0 2.0 240 240
d 1.7 0 1 cbr 512 ------- 2 0.0 2.0 240 240
+ 1.705 0 1 cbr 512 ------- 2 0.0 2.0 241 241
d 1.705 0 1 cbr 512 ------- 2 0.0 2.0 241 241
r 1.70784 0 1 cbr 512 ------- 2 0.0 2.0 156 156
+ 1.70784 1 2 cbr 512 ------- 2 0.0 2.0 156 156
- 1.70784 1 2 cbr 512 ------- 2 0.0 2.0 156 156
+ 1.71 0 1 cbr 512 ------- 2 0.0 2.0 242 242
d 1.71 0 1 cbr 512 ------- 2 0.0 2.0 242 242
+ 1.715 0 1 cbr 512 ------- 2 0.0 2.0 243 243
d 1.715 0 1 cbr 512 ------- 2 0.0 2.0 243 243
+ 1.72 0 1 cbr 512 ------- 2 0.0 2.0 244 244
d 1.72 0 1 cbr 512 ------- 2 0.0 2.0 244 244
+ 1.725 0 1 cbr 512 ------- 2 0.0 2.0 245 245
d 1.725 0 1 cbr 512 ------- 2 0.0 2.0 245 245
r 1.72784 1 2 cbr 512 ------- 2 0.0 2.0 148 148
- 1.7288 0 1 cbr 512 ------- 2 0.0 2.0 173 173
+ 1.73 0 1 cbr 512 ------- 2 0.0 2.0 246 246
+ 1.735 0 1 cbr 512 ------- 2 0.0 2.0 247 247
d 1.735 0 1 cbr 512 ------- 2 0.0 2.0 247 247
+ 1.74 0 1 cbr 512 ------- 2 0.0 2.0 248 248
d 1.74 0 1 cbr 512 ------- 2 0.0 2.0 248 248
+ 1.745 0 1 cbr 512 ------- 2 0.0 2.0 249 249
d 1.745 0 1 cbr 512 ------- 2 0.0 2.0 249 249
r 1.7488 0 1 cbr 512 ------- 2 0.0 2.0 164 164
+ 1.7488 1 2 cbr 512 ------- 2 0.0 2.0 164 164
- 1.7488 1 2 cbr 512 ------- 2 0.0 2.0 164 164
+ 1.75 0 1 cbr 512 ------- 2 0.0 2.0 250 250
d 1.75 0 1 cbr 512 ------- 2 0.0 2.0 250 250
+ 1.755 0 1 cbr 512 ------- 2 0.0 2.0 251 251
d 1.755 0 1 cbr 512 ------- 2 0.0 2.0 251 251
+ 1.76 0 1 cbr 512 ------- 2 0.0 2.0 252 252
d 1.76 0 1 cbr 512 ------- 2 0.0 2.0 252 252
+ 1.765 0 1 cbr 512 ------- 2 0.0 2.0 253 253
d 1.765 0 1 cbr 512 ------- 2 0.0 2.0 253 253
r 1.7688 1 2 cbr 512 ------- 2 0.0 2.0 156 156
- 1.76976 0 1 cbr 512 ------- 2 0.0 2.0 181 181
+ 1.77 0 1 cbr 512 ------- 2 0.0 2.0 254 254
+ 1.775 0 1 cbr 512 ------- 2 0.0 2.0 255 255
d 1.775 0 1 cbr 512 ------- 2 0.0 2.0 255 255
+ 1.78 0 1 cbr 512 ------- 2 0.0 2.0 256 256
d 1.78 0 1 cbr 512 ------- 2 0.0 2.0 256 256
+ 1.785 0 1 cbr 512 ------- 2 0.0 2.0 257 257
d 1.785 0 1 cbr 512 ------- 2 0.0 2.0 257 257
r 1.78976 0 1 cbr 512 ------- 2 0.0 2.0 173 173
+ 1.78976 1 2 cbr 512 ------- 2 0.0 2.0 173 173
- 1.78976 1 2 cbr 512 ------- 2 0.0 2.0 173 173
+ 1.79 0 1 cbr 512 ------- 2 0.0 2.0 258 258
d 1.79 0 1 cbr 512 ------- 2 0.0 2.0 258 258
+ 1.795 0 1 cbr 512 ------- 2 0.0 2.0 259 259
d 1.795 0 1 cbr 512 ------- 2 0.0 2.0 259 259
+ 1.8 0 1 cbr 512 ------- 2 0.0 2.0 260 260
d 1.8 0 1 cbr 512 ------- 2 0.0 2.0 260 260
+ 1.805 0 1 cbr 512 ------- 2 0.0 2.0 261 261
d 1.805 0 1 cbr 512 ------- 2 0.0 2.0 261 261
r 1.80976 1 2 cbr 512 ------- 2 0.0 2.0 164 164
+ 1.81 0 1 cbr 512 ------- 2 0.0 2.0 262 262
d 1.81 0 1 cbr 512 ------- 2 0.0 2.0 262 262
- 1.81072 0 1 cbr 512 ------- 2 0.0 2.0 189 189
+ 1.815 0 1 cbr 512 ------- 2 0.0 2.0 263 263
+ 1.82 0 1 cbr 512 ------- 2 0.0 2.0 264 264
d 1.82 0 1 cbr 512 ------- 2 0.0 2.0 264 264
+ 1.825 0 1 cbr 512 ------- 2 0.0 2.0 265 265
d 1.825 0 1 cbr 512 ------- 2 0.0 2.0 265 265
+ 1.83 0 1 cbr 512 ------- 2 0.0 2.0 266 266
d 1.83 0 1 cbr 512 ------- 2 0.0 2.0 266 266
r 1.83072 0 1 cbr 512 ------- 2 0.0 2.0 181 181
+ 1.83072 1 2 cbr 512 ------- 2 0.0 2.0 181 181
- 1.83072 1 2 cbr 512 ------- 2 0.0 2.0 181 181
+ 1.835 0 1 cbr 512 ------- 2 0.0 2.0 267 267
d 1.835 0 1 cbr 512 ------- 2 0.0 2.0 267 267
+ 1.84 0 1 cbr 512 ------- 2 0.0 2.0 268 268
d 1.84 0 1 cbr 512 ------- 2 0.0 2.0 268 268
+ 1.845 0 1 cbr 512 ------- 2 0.0 2.0 269 269
d 1.845 0 1 cbr 512 ------- 2 0.0 2.0 269 269
+ 1.85 0 1 cbr 512 ------- 2 0.0 2.0 270 270
d 1.85 0 1 cbr 512 ------- 2 0.0 2.0 270 270
r 1.85072 1 2 cbr 512 ------- 2 0.0 2.0 173 173
- 1.85168 0 1 cbr 512 ------- 2 0.0 2.0 197 197
+ 1.855 0 1 cbr 512 ------- 2 0.0 2.0 271 271
+ 1.86 0 1 cbr 512 ------- 2 0.0 2.0 272 272
d 1.86 0 1 cbr 512 ------- 2 0.0 2.0 272 272
+ 1.865 0 1 cbr 512 ------- 2 0.0 2.0 273 273
d 1.865 0 1 cbr 512 ------- 2 0.0 2.0 273 273
+ 1.87 0 1 cbr 512 ------- 2 0.0 2.0 274 274