V -t * -v 1.0a5 -a 0
A -t * -n 1 -p 0 -o 0x7fffffff -c 30 -a 1
A -t * -h 1 -m 1073741823 -s 0
n -t * -a 0 -s 0 -S UP -v hexagon -c red -i red
n -t * -a 1 -s 1 -S UP -v circle -c black -i black
n -t * -a 2 -s 2 -S UP -v square -c blue -i blue
l -t * -s 0 -d 1 -S UP -r 100000 -D 0.02 -c black
l -t * -s 1 -d 2 -S UP -r 100000 -D 0.02 -c black
+ -t 0.5 -s 0 -d 1 -p cbr -e 512 -c 2 -i 0 -a 2 -x {0.0 2.0 0 ------- null}
- -t 0.5 -s 0 -d 1 -p cbr -e 512 -c 2 -i 0 -a 2 -x {0.0 2.0 0 ------- null}
h -t 0.5 -s 0 -d 1 -p cbr -e 512 -c 2 -i 0 -a 2 -x {0.0 2.0 -1 ------- null}
+ -t 0.505 -s 0 -d 1 -p cbr -e 512 -c 2 -i 1 -a 2 -x {0.0 2.0 1 ------- null}
+ -t 0.51 -s 0 -d 1 -p cbr -e 512 -c 2 -i 2 -a 2 -x {0.0 2.0 2 ------- null}
+ -t 0.515 -s 0 -d 1 -p cbr -e 512 -c 2 -i 3 -a 2 -x {0.0 2.0 3 ------- null}
+ -t 0.52 -s 0 -d 1 -p cbr -e 512 -c 2 -i 4 -a 2 -x {0.0 2.0 4 ------- null}
+ -t 0.525 -s 0 -d 1 -p cbr -e 512 -c 2 -i 5 -a 2 -x {0.0 2.0 5 ------- null}
+ -t 0.53 -s 0 -d 1 -p cbr -e 512 -c 2 -i 6 -a 2 -x {0.0 2.0 6 ------- null}
+ -t 0.535 -s 0 -d 1 -p cbr -e 512 -c 2 -i 7 -a 2 -x {0.0 2.0 7 ------- null}
+ -t 0.54 -s 0 -d 1 -p cbr -e 512 -c 2 -i 8 -a 2 -x {0.0 2.0 8 ------- null}
- -t 0.54096 -s 0 -d 1 -p cbr -e 512 -c 2 -i 1 -a 2 -x {0.0 2.0 1 ------- null}
h -t 0.54096 -s 0 -d 1 -p cbr -e 512 -c 2 -i 1 -a 2 -x {0.0 2.0 -1 ------- null}
+ -t 0.545 -s 0 -d 1 -p cbr -e 512 -c 2 -i 9 -a 2 -x {0.0 2.0 9 ------- null}
+ -t 0.55 -s 0 -d 1 -p cbr -e 512 -c 2 -i 10 -a 2 -x {0.0 2.0 10 ------- null}
+ -t 0.555 -s 0 -d 1 -p cbr -e 512 -c 2 -i 11 -a 2 -x {0.0 2.0 11 ------- null}
d -t 0.555 -s 0 -d 1 -p cbr -e 512 -c 2 -i 11 -a 2 -x {0.0 2.0 11 ------- null}
+ -t 0.56 -s 0 -d 1 -p cbr -e 512 -c 2 -i 12 -a 2 -x {0.0 2.0 12 ------- null}
d -t 0.56 -s 0 -d 1 -p cbr -e 512 -c 2 -i 12 -a 2 -x {0.0 2.0 12 ------- null}
r -t 0.56096 -s 0 -d 1 -p cbr -e 512 -c 2 -i 0 -a 2 -x {0.0 2.0 0 ------- null}
+ -t 0.56096 -s 1 -d 2 -p cbr -e 512 -c 2 -i 0 -a 2 -x {0.0 2.0 0 ------- null}
- -t 0.56096 -s 1 -d 2 -p cbr -e 512 -c 2 -i 0 -a 2 -x {0.0 2.0 0 ------- null}
h -t 0.56096 -s 1 -d 2 -p cbr -e 512 -c 2 -i 0 -a 2 -x {0.0 2.0 -1 ------- null}
+ -t 0.565 -s 0 -d 1 -p cbr -e 512 -c 2 -i 13 -a 2 -x {0.0 2.0 13 ------- null}
d -t 0.565 -s 0 -d 1 -p cbr -e 512 -c 2 -i 13 -a 2 -x {0.0 2.0 13 ------- null}
+ -t 0.57 -s 0 -d 1 -p cbr -e 512 -c 2 -i 14 -a 2 -x {0.0 2.0 14 ------- null}
d -t 0.57 -s 0 -d 1 -p cbr -e 512 -c 2 -i 14 -a 2 -x {0.0 2.0 14 ------- null}
+ -t 0.575 -s 0 -d 1 -p cbr -e 512 -c 2 -i 15 -a 2 -x {0.0 2.0 15 ------- null}
d -t 0.575 -s 0 -d 1 -p cbr -e 512 -c 2 -i 15 -a 2 -x {0.0 2.0 15 ------- null}
+ -t 0.58 -s 0 -d 1 -p cbr -e 512 -c 2 -i 16 -a 2 -x {0.0 2.0 16 ------- null}
d -t 0.58 -s 0 -d 1 -p cbr -e 512 -c 2 -i 16 -a 2 -x {0.0 2.0 16 ------- null}
- -t 0.58192 -s 0 -d 1 -p cbr -e 512 -c 2 -i 2 -a 2 -x {0.0 2.0 2 ------- null}
h -t 0.58192 -s 0 -d 1 -p cbr -e 512 -c 2 -i 2 -a 2 -x {0.0 2.0 -1 ------- null}
+ -t 0.585 -s 0 -d 1 -p cbr -e 512 -c 2 -i 17 -a 2 -x {0.0 2.0 17 ------- null}
+ -t 0.59 -s 0 -d 1 -p cbr -e 512 -c 2 -i 18 -a 2 -x {0.0 2.0 18 ------- null}
d -t 0.59 -s 0 -d 1 -p cbr -e 512 -c 2 -i 18 -a 2 -x {0.0 2.0 18 ------- null}
+ -t 0.595 -s 0 -d 1 -p cbr -e 512 -c 2 -i 19 -a 2 -x {0.0 2.0 19 ------- null}
d -t 0.595 -s 0 -d 1 -p cbr -e 512 -c 2 -i 19 -a 2 -x {0.0 2.0 19 ------- null}
+ -t 0.6 -s 0 -d 1 -p cbr -e 512 -c 2 -i 20 -a 2 -x {0.0 2.0 20 ------- null}
d -t 0.6 -s 0 -d 1 -p cbr -e 512 -c 2 -i 20 -a 2 -x {0.0 2.0 20 ------- null}
r -t 0.60192 -s 0 -d 1 -p cbr -e 512 -c 2 -i 1 -a 2 -x {0.0 2.0 1 ------- null}
+ -t 0.60192 -s 1 -d 2 -p cbr -e 512 -c 2 -i 1 -a 2 -x {0.0 2.0 1 ------- null}
- -t 0.60192 -s 1 -d 2 -p cbr -e 512 -c 2 -i 1 -a 2 -x {0.0 2.0 1 ------- null}
h -t 0.60192 -s 1 -d 2 -p cbr -e 512 -c 2 -i 1 -a 2 -x {0.0 2.0 -1 ------- null}
+ -t 0.605 -s 0 -d 1 -p cbr -e 512 -c 2 -i 21 -a 2 -x {0.0 2.0 21 ------- null}
d -t 0.605 -s 0 -d 1 -p cbr -e 512 -c 2 -i 21 -a 2 -x {0.0 2.0 21 ------- null}
+ -t 0.61 -s 0 -d 1 -p cbr -e 512 -c 2 -i 22 -a 2 -x {0.0 2.0 22 ------- null}
d -t 0.61 -s 0 -d 1 -p cbr -e 512 -c 2 -i 22 -a 2 -x {0.0 2.0 22 ------- null}
+ -t 0.615 -s 0 -d 1 -p cbr -e 512 -c 2 -i 23 -a 2 -x {0.0 2.0 23 ------- null}
d -t 0.615 -s 0 -d 1 -p cbr -e 512 -c 2 -i 23 -a 2 -x {0.0 2.0 23 ------- null}
+ -t 0.62 -s 0 -d 1 -p cbr -e 512 -c 2 -i 24 -a 2 -x {0.0 2.0 24 ------- null}
d -t 0.62 -s 0 -d 1 -p cbr -e 512 -c 2 -i 24 -a 2 -x {0.0 2.0 24 ------- null}
r -t 0.62192 -s 1 -d 2 -p cbr -e 512 -c 2 -i 0 -a 2 -x {0.0 2.0 0 ------- null}
- -t 0.62288 -s 0 -d 1 -p cbr -e 512 -c 2 -i 3 -a 2 -x {0.0 2.0 3 ------- null}
h -t 0.62288 -s 0 -d 1 -p cbr -e 512 -c 2 -i 3 -a 2 -x {0.0 2.0 -1 ------- null}
+ -t 0.625 -s 0 -d 1 -p cbr -e 512 -c 2 -i 25 -a 2 -x {0.0 2.0 25 ------- null}
+ -t 0.63 -s 0 -d 1 -p cbr -e 512 -c 2 -i 26 -a 2 -x {0.0 2.0 26 ------- null}
d -t 0.63 -s 0 -d 1 -p cbr -e 512 -c 2 -i 26 -a 2 -x {0.0 2.0 26 ------- null}
+ -t 0.635 -s 0 -d 1 -p cbr -e 512 -c 2 -i 27 -a 2 -x {0.0 2.0 27 ------- null}
d -t 0.635 -s 0 -d 1 -p cbr -e 512 -c 2 -i 27 -a 2 -x {0.0 2.0 27 ------- null}
+ -t 0.64 -s 0 -d 1 -p cbr -e 512 -c 2 -i 28 -a 2 -x {0.0 2.0 28 ------- null}
d -t 0.64 -s 0 -d 1 -p cbr -e 512 -c 2 -i 28 -a 2 -x {0.0 2.0 28 ------- null}
r -t 0.64288 -s 0 -d 1 -p cbr -e 512 -c 2 -i 2 -a 2 -x {0.0 2.0 2 ------- null}
+ -t 0.64288 -s 1 -d 2 -p cbr -e 512 -c 2 -i 2 -a 2 -x {0.0 2.0 2 ------- null}
- -t 0.64288 -s 1 -d 2 -p cbr -e 512 -c 2 -i 2 -a 2 -x {0.0 2.0 2 ------- null}
h -t 0.64288 -s 1 -d 2 -p cbr -e 512 -c 2 -i 2 -a 2 -x {0.0 2.0 -1 ------- null}
+ -t 0.645 -s 0 -d 1 -p cbr -e 512 -c 2 -i 29 -a 2 -x {0.0 2.0 29 ------- null}
d -t 0.645 -s 0 -d 1 -p cbr -e 512 -c 2 -i 29 -a 2 -x {0.0 2.0 29 ------- null}
+ -t 0.65 -s 0 -d 1 -p cbr -e 512 -c 2 -i 30 -a 2 -x {0.0 2.0 30 ------- null}
d -t 0.65 -s 0 -d 1 -p cbr -e 512 -c 2 -i 30 -a 2 -x {0.0 2.0 30 ------- null}
+ -t 0.655 -s 0 -d 1 -p cbr -e 512 -c 2 -i 31 -a 2 -x {0.0 2.0 31 ------- null}
d -t 0.655 -s 0 -d 1 -p cbr -e 512 -c 2 -i 31 -a 2 -x {0.0 2.0 31 ------- null}
+ -t 0.66 -s 0 -d 1 -p cbr -e 512 -c 2 -i 32 -a 2 -x {0.0 2.0 32 ------- null}
d -t 0.66 -s 0 -d 1 -p cbr -e 512 -c 2 -i 32 -a 2 -x {0.0 2.0 32 ------- null}
r -t 0.66288 -s 1 -d 2 -p cbr -e 512 -c 2 -i 1 -a 2 -x {0.0 2.0 1 ------- null}
- -t 0.66384 -s 0 -d 1 -p cbr -e 512 -c 2 -i 4 -a 2 -x {0.0 2.0 4 ------- null}
h -t 0.66384 -s 0 -d 1 -p cbr -e 512 -c 2 -i 4 -a 2 -x {0.0 2.0 -1 ------- null}
+ -t 0.665 -s 0 -d 1 -p cbr -e 512 -c 2 -i 33 -a 2 -x {0.0 2.0 33 ------- null}
+ -t 0.67 -s 0 -d 1 -p cbr -e 512 -c 2 -i 34 -a 2 -x {0.0 2.0 34 ------- null}
d -t 0.67 -s 0 -d 1 -p cbr -e 512 -c 2 -i 34 -a 2 -x {0.0 2.0 34 ------- null}
+ -t 0.675 -s 0 -d 1 -p cbr -e 512 -c 2 -i 35 -a 2 -x {0.0 2.0 35 ------- null}
d -t 0.675 -s 0 -d 1 -p cbr -e 512 -c 2 -i 35 -a 2 -x {0.0 2.0 35 ------- null}
+ -t 0.68 -s 0 -d 1 -p cbr -e 512 -c 2 -i 36 -a 2 -x {0.0 2.0 36 ------- null}
d -t 0.68 -s 0 -d 1 -p cbr -e 512 -c 2 -i 36 -a 2 -x {0.0 2.0 36 ------- null}
r -t 0.68384 -s 0 -d 1 -p cbr -e 512 -c 2 -i 3 -a 2 -x {0.0 2.0 3 ------- null}
+ -t 0.68384 -s 1 -d 2 -p cbr -e 512 -c 2 -i 3 -a 2 -x {0.0 2.0 3 ------- null}
- -t 0.68384 -s 1 -d 2 -p cbr -e 512 -c 2 -i 3 -a 2 -x {0.0 2.0 3 ------- null}
h -t 0.68384 -s 1 -d 2 -p cbr -e 512 -c 2 -i 3 -a 2 -x {0.0 2.0 -1 ------- null}
+ -t 0.685 -s 0 -d 1 -p cbr -e 512 -c 2 -i 37 -a 2 -x {0.0 2.0 37 ------- null}
d -t 0.685 -s 0 -d 1 -p cbr -e 512 -c 2 -i 37 -a 2 -x {0.0 2.0 37 ------- null}
+ -t 0.69 -s 0 -d 1 -p cbr -e 512 -c 2 -i 38 -a 2 -x {0.0 2.0 38 ------- null}
d -t 0.69 -s 0 -d 1 -p cbr -e 512 -c 2 -i 38 -a 2 -x {0.0 2.0 38 ------- null}
+ -t 0.695 -s 0 -d 1 -p cbr -e 512 -c 2 -i 39 -a 2 -x {0.0 2.0 39 ------- null}
d -t 0.695 -s 0 -d 1 -p cbr -e 512 -c 2 -i 39 -a 2 -x {0.0 2.0 39 ------- null}
+ -t 0.7 -s 0 -d 1 -p cbr -e 512 -c 2 -i 40 -a 2 -x {0.0 2.0 40 ------- null}
d -t 0.7 -s 0 -d 1 -p cbr -e 512 -c 2 -i 40 -a 2 -x {0.0 2.0 40 ------- null}
r -t 0.70384 -s 1 -d 2 -p cbr -e 512 -c 2 -i 2 -a 2 -x {0.0 2.0 2 ------- null}
- -t 0.7048 -s 0 -d 1 -p cbr -e 512 -c 2 -i 5 -a 2 -x {0.0 2.0 5 ------- null}
h -t 0.7048 -s 0 -d 1 -p cbr -e 512 -c 2 -i 5 -a 2 -x {0.0 2.0 -1 ------- null}
+ -t 0.705 -s 0 -d 1 -p cbr -e 512 -c 2 -i 41 -a 2 -x {0.0 2.0 41 ------- null}
+ -t 0.71 -s 0 -d 1 -p cbr -e 512 -c 2 -i 42 -a 2 -x {0.0 2.0 42 ------- null}
d -t 0.71 -s 0 -d 1 -p cbr -e 512 -c 2 -i 42 -a 2 -x {0.0 2.0 42 ------- null}
+ -t 0.715 -s 0 -d 1 -p cbr -e 512 -c 2 -i 43 -a 2 -x {0.0 2.0 43 ------- null}
d -t 0.715 -s 0 -d 1 -p cbr -e 512 -c 2 -i 43 -a 2 -x {0.0 2.0 43 ------- null}
+ -t 0.72 -s 0 -d 1 -p cbr -e 512 -c 2 -i 44 -a 2 -x {0.0 2.0 44 ------- null}
d -t 0.72 -s 0 -d 1 -p cbr -e 512 -c 2 -i 44 -a 2 -x {0.0 2.0 44 ------- null}
r -t 0.7248 -s 0 -d 1 -p cbr -e 512 -c 2 -i 4 -a 2 -x {0.0 2.0 4 ------- null}
+ -t 0.7248 -s 1 -d 2 -p cbr -e 512 -c 2 -i 4 -a 2 -x {0.0 2.0 4 ------- null}
- -t 0.7248 -s 1 -d 2 -p cbr -e 512 -c 2 -i 4 -a 2 -x {0.0 2.0 4 ------- null}
h -t 0.7248 -s 1 -d 2 -p cbr -e 512 -c 2 -i 4 -a 2 -x {0.0 2.0 -1 ------- null}
+ -t 0.725 -s 0 -d 1 -p cbr -e 512 -c 2 -i 45 -a 2 -x {0.0 2.0 45 ------- null}
d -t 0.725 -s 0 -d 1 -p cbr -e 512 -c 2 -i 45 -a 2 -x {0.0 2.0 45 ------- null}
+ -t 0.73 -s 0 -d 1 -p cbr -e 512 -c 2 -i 46 -a 2 -x {0.0 2.0 46 ------- null}
d -t 0.73 -s 0 -d 1 -p cbr -e 512 -c 2 -i 46 -a 2 -x {0.0 2.0 46 ------- null}
+ -t 0.735 -s 0 -d 1 -p cbr -e 512 -c 2 -i 47 -a 2 -x {0.0 2.0 47 ------- null}
d -t 0.735 -s 0 -d 1 -p cbr -e 512 -c 2 -i 47 -a 2 -x {0.0 2.0 47 ------- null}
+ -t 0.74 -s 0 -d 1 -p cbr -e 512 -c 2 -i 48 -a 2 -x {0.0 2.0 48 ------- null}
d -t 0.74 -s 0 -d 1 -p cbr -e 512 -c 2 -i 48 -a 2 -x {0.0 2.0 48 ------- null}
r -t 0.7448 -s 1 -d 2 -p cbr -e 512 -c 2 -i 3 -a 2 -x {0.0 2.0 3 ------- null}
+ -t 0.745 -s 0 -d 1 -p cbr -e 512 -c 2 -i 49 -a 2 -x {0.0 2.0 49 ------- null}
d -t 0.745 -s 0 -d 1 -p cbr -e 512 -c 2 -i 49 -a 2 -x {0.0 2.0 49 ------- null}
- -t 0.74576 -s 0 -d 1 -p cbr -e 512 -c 2 -i 6 -a 2 -x {0.0 2.0 6 ------- null}
h -t 0.74576 -s 0 -d 1 -p cbr -e 512 -c 2 -i 6 -a 2 -x {0.0 2.0 -1 ------- null}
+ -t 0.75 -s 0 -d 1 -p cbr -e 512 -c 2 -i 50 -a 2 -x {0.0 2.0 50 ------- null}
+ -t 0.755 -s 0 -d 1 -p cbr -e 512 -c 2 -i 51 -a 2 -x {0.0 2.0 51 ------- null}
d -t 0.755 -s 0 -d 1 -p cbr -e 512 -c 2 -i 51 -a 2 -x {0.0 2.0 51 ------- null}
+ -t 0.76 -s 0 -d 1 -p cbr -e 512 -c 2 -i 52 -a 2 -x {0.0 2.0 52 ------- null}
d -t 0.76 -s 0 -d 1 -p cbr -e 512 -c 2 -i 52 -a 2 -x {0.0 2.0 52 ------- null}
+ -t 0.765 -s 0 -d 1 -p cbr -e 512 -c 2 -i 53 -a 2 -x {0.0 2.0 53 ------- null}
d -t 0.765 -s 0 -d 1 -p cbr -e 512 -c 2 -i 53 -a 2 -x {0.0 2.0 53 ------- null}
r -t 0.76576 -s 0 -d 1 -p cbr -e 512 -c 2 -i 5 -a 2 -x {0.0 2.0 5 ------- null}
+ -t 0.76576 -s 1 -d 2 -p cbr -e 512 -c 2 -i 5 -a 2 -x {0.0 2.0 5 ------- null}
- -t 0.76576 -s 1 -d 2 -p cbr -e 512 -c 2 -i 5 -a 2 -x {0.0 2.0 5 ------- null}
h -t 0.76576 -s 1 -d 2 -p cbr -e 512 -c 2 -i 5 -a 2 -x {0.0 2.0 -1 ------- null}
+ -t 0.77 -s 0 -d 1 -p cbr -e 512 -c 2 -i 54 -a 2 -x {0.0 2.0 54 ------- null}
d -t 0.77 -s 0 -d 1 -p cbr -e 512 -c 2 -i 54 -a 2 -x {0.0 2.0 54 ------- null}
+ -t 0.775 -s 0 -d 1 -p cbr -e 512 -c 2 -i 55 -a 2 -x {0.0 2.0 55 ------- null}
d -t 0.775 -s 0 -d 1 -p cbr -e 512 -c 2 -i 55 -a 2 -x {0.0 2.0 55 ------- null}
+ -t 0.78 -s 0 -d 1 -p cbr -e 512 -c 2 -i 56 -a 2 -x {0.0 2.0 56 ------- null}
d -t 0.78 -s 0 -d 1 -p cbr -e 512 -c 2 -i 56 -a 2 -x {0.0 2.0 56 ------- null}
+ -t 0.785 -s 0 -d 1 -p cbr -e 512 -c 2 -i 57 -a 2 -x {0.0 2.0 57 ------- null}
d -t 0.785 -s 0 -d 1 -p cbr -e 512 -c 2 -i 57 -a 2 -x {0.0 2.0 57 ------- null}
r -t 0.78576 -s 1 -d 2 -p cbr -e 512 -c 2 -i 4 -a 2 -x {0.0 2.0 4 ------- null}
- -t 0.78672 -s 0 -d 1 -p cbr -e 512 -c 2 -i 7 -a 2 -x {0.0 2.0 7 ------- null}
h -t 0.78672 -s 0 -d 1 -p cbr -e 512 -c 2 -i 7 -a 2 -x {0.0 2.0 -1 ------- null}
+ -t 0.79 -s 0 -d 1 -p cbr -e 512 -c 2 -i 58 -a 2 -x {0.0 2.0 58 ------- null}
+ -t 0.795 -s 0 -d 1 -p cbr -e 512 -c 2 -i 59 -a 2 -x {0.0 2.0 59 ------- null}
d -t 0.795 -s 0 -d 1 -p cbr -e 512 -c 2 -i 59 -a 2 -x {0.0 2.0 59 ------- null}
+ -t 0.8 -s 0 -d 1 -p cbr -e 512 -c 2 -i 60 -a 2 -x {0.0 2.0 60 ------- null}
d -t 0.8 -s 0 -d 1 -p cbr -e 512 -c 2 -i 60 -a 2 -x {0.0 2.0 60 ------- null}
+ -t 0.805 -s 0 -d 1 -p cbr -e 512 -c 2 -i 61 -a 2 -x {0.0 2.0 61 ------- null}
d -t 0.805 -s 0 -d 1 -p cbr -e 512 -c 2 -i 61 -a 2 -x {0.0 2.0 61 ------- null}
r -t 0.80672 -s 0 -d 1 -p cbr -e 512 -c 2 -i 6 -a 2 -x {0.0 2.0 6 ------- null}
+ -t 0.80672 -s 1 -d 2 -p cbr -e 512 -c 2 -i 6 -a 2 -x {0.0 2.0 6 ------- null}
- -t 0.80672 -s 1 -d 2 -p cbr -e 512 -c 2 -i 6 -a 2 -x {0.0 2.0 6 ------- null}
h -t 0.80672 -s 1 -d 2 -p cbr -e 512 -c 2 -i 6 -a 2 -x {0.0 2.0 -1 ------- null}
+ -t 0.81 -s 0 -d 1 -p cbr -e 512 -c 2 -i 62 -a 2 -x {0.0 2.0 62 ------- null}
d -t 0.81 -s 0 -d 1 -p cbr -e 512 -c 2 -i 62 -a 2 -x {0.0 2.0 62 ------- null}
+ -t 0.815 -s 0 -d 1 -p cbr -e 512 -c 2 -i 63 -a 2 -x {0.0 2.0 63 ------- null}
d -t 0.815 -s 0 -d 1 -p cbr -e 512 -c 2 -i 63 -a 2 -x {0.0 2.0 63 ------- null}
+ -t 0.82 -s 0 -d 1 -p cbr -e 512 -c 2 -i 64 -a 2 -x {0.0 2.0 64 ------- null}
d -t 0.82 -s 0 -d 1 -p cbr -e 512 -c 2 -i 64 -a 2 -x {0.0 2.0 64 ------- null}
+ -t 0.825 -s 0 -d 1 -p cbr -e 512 -c 2 -i 65 -a 2 -x {0.0 2.0 65 ------- null}
d -t 0.825 -s 0 -d 1 -p cbr -e 512 -c 2 -i 65 -a 2 -x {0.0 2.0 65 ------- null}
r -t 0.82672 -s 1 -d 2 -p cbr -e 512 -c 2 -i 5 -a 2 -x {0.0 2.0 5 ------- null}
- -t 0.82768 -s 0 -d 1 -p cbr -e 512 -c 2 -i 8 -a 2 -x {0.0 2.0 8 ------- null}
h -t 0.82768 -s 0 -d 1 -p cbr -e 512 -c 2 -i 8 -a 2 -x {0.0 2.0 -1 ------- null}
+ -t 0.83 -s 0 -d 1 -p cbr -e 512 -c 2 -i 66 -a 2 -x {0.0 2.0 66 ------- null}
+ -t 0.835 -s 0 -d 1 -p cbr -e 512 -c 2 -i 67 -a 2 -x {0.0 2.0 67 ------- null}
d -t 0.835 -s 0 -d 1 -p cbr -e 512 -c 2 -i 67 -a 2 -x {0.0 2.0 67 ------- null}
+ -t 0.84 -s 0 -d 1 -p cbr -e 512 -c 2 -i 68 -a 2 -x {0.0 2.0 68 ------- null}
d -t 0.84 -s 0 -d 1 -p cbr -e 512 -c 2 -i 68 -a 2 -x {0.0 2.0 68 ------- null}
+ -t 0.845 -s 0 -d 1 -p cbr -e 512 -c 2 -i 69 -a 2 -x {0.0 2.0 69 ------- null}
d -t 0.845 -s 0 -d 1 -p cbr -e 512 -c 2 -i 69 -a 2 -x {0.0 2.0 69 ------- null}
r -t 0.84768 -s 0 -d 1 -p cbr -e 512 -c 2 -i 7 -a 2 -x {0.0 2.0 7 ------- null}
+ -t 0.84768 -s 1 -d 2 -p cbr -e 512 -c 2 -i 7 -a 2 -x {0.0 2.0 7 ------- null}
- -t 0.84768 -s 1 -d 2 -p cbr -e 512 -c 2 -i 7 -a 2 -x {0.0 2.0 7 ------- null}
h -t 0.84768 -s 1 -d 2 -p cbr -e 512 -c 2 -i 7 -a 2 -x {0.0 2.0 -1 ------- null}
+ -t 0.85 -s 0 -d 1 -p cbr -e 512 -c 2 -i 70 -a 2 -x {0.0 2.0 70 ------- null}
d -t 0.85 -s 0 -d 1 -p cbr -e 512 -c 2 -i 70 -a 2 -x {0.0 2.0 70 ------- null}
+ -t 0.855 -s 0 -d 1 -p cbr -e 512 -c 2 -i 71 -a 2 -x {0.0 2.0 71 ------- null}
d -t 0.855 -s 0 -d 1 -p cbr -e 512 -c 2 -i 71 -a 2 -x {0.0 2.0 71 ------- null}
+ -t 0.86 -s 0 -d 1 -p cbr -e 512 -c 2 -i 72 -a 2 -x {0.0 2.0 72 ------- null}
d -t 0.86 -s 0 -d 1 -p cbr -e 512 -c 2 -i 72 -a 2 -x {0.0 2.0 72 ------- null}
+ -t 0.865 -s 0 -d 1 -p cbr -e 512 -c 2 -i 73 -a 2 -x {0.0 2.0 73 ------- null}
d -t 0.865 -s 0 -d 1 -p cbr -e 512 -c 2 -i 73 -a 2 -x {0.0 2.0 73 ------- null}
r -t 0.86768 -s 1 -d 2 -p cbr -e 512 -c 2 -i 6 -a 2 -x {0.0 2.0 6 ------- null}
- -t 0.86864 -s 0 -d 1 -p cbr -e 512 -c 2 -i 9 -a 2 -x {0.0 2.0 9 ------- null}
h -t 0.86864 -s 0 -d 1 -p cbr -e 512 -c 2 -i 9 -a 2 -x {0.0 2.0 -1 ------- null}
+ -t 0.87 -s 0 -d 1 -p cbr -e 512 -c 2 -i 74 -a 2 -x {0.0 2.0 74 ------- null}
+ -t 0.875 -s 0 -d 1 -p cbr -e 512 -c 2 -i 75 -a 2 -x {0.0 2.0 75 ------- null}
d -t 0.875 -s 0 -d 1 -p cbr -e 512 -c 2 -i 75 -a 2 -x {0.0 2.0 75 ------- null}
+ -t 0.88 -s 0 -d 1 -p cbr -e 512 -c 2 -i 76 -a 2 -x {0.0 2.0 76 ------- null}
d -t 0.88 -s 0 -d 1 -p cbr -e 512 -c 2 -i 76 -a 2 -x {0.0 2.0 76 ------- null}
+ -t 0.885 -s 0 -d 1 -p cbr -e 512 -c 2 -i 77 -a 2 -x {0.0 2.0 77 ------- null}
d -t 0.885 -s 0 -d 1 -p cbr -e 512 -c 2 -i 77 -a 2 -x {0.0 2.0 77 ------- null}
r -t 0.88864 -s 0 -d 1 -p cbr -e 512 -c 2 -i 8 -a 2 -x {0.0 2.0 8 ------- null}
+ -t 0.88864 -s 1 -d 2 -p cbr -e 512 -c 2 -i 8 -a 2 -x {0.0 2.0 8 ------- null}
- -t 0.88864 -s 1 -d 2 -p cbr -e 512 -c 2 -i 8 -a 2 -x {0.0 2.0 8 ------- null}
h -t 0.88864 -s 1 -d 2 -p cbr -e 512 -c 2 -i 8 -a 2 -x {0.0 2.0 -1 ------- null}
+ -t 0.89 -s 0 -d 1 -p cbr -e 512 -c 2 -i 78 -a 2 -x {0.0 2.0 78 ------- null}
d -t 0.89 -s 0 -d 1 -p cbr -e 512 -c 2 -i 78 -a 2 -x {0.0 2.0 78 ------- null}
+ -t 0.895 -s 0 -d 1 -p cbr -e 512 -c 2 -i 79 -a 2 -x {0.0 2.0 79 ------- null}
d -t 0.895 -s 0 -d 1 -p cbr -e 512 -c 2 -i 79 -a 2 -x {0.0 2.0 79 ------- null}
+ -t 0.9 -s 0 -d 1 -p cbr -e 512 -c 2 -i 80 -a 2 -x {0.0 2.0 80 ------- null}
d -t 0.9 -s 0 -d 1 -p cbr -e 512 -c 2 -i 80 -a 2 -x {0.0 2.0 80 ------- null}
+ -t 0.905 -s 0 -d 1 -p cbr -e 512 -c 2 -i 81 -a 2 -x {0.0 2.0 81 ------- null}
d -t 0.905 -s 0 -d 1 -p cbr -e 512 -c 2 -i 81 -a 2 -x {0.0 2.0 81 ------- null}
r -t 0.90864 -s 1 -d 2 -p cbr -e 512 -c 2 -i 7 -a 2 -x {0.0 2.0 7 ------- null}
- -t 0.9096 -s 0 -d 1 -p cbr -e 512 -c 2 -i 10 -a 2 -x {0.0 2.0 10 ------- null}
h -t 0.9096 -s 0 -d 1 -p cbr -e 512 -c 2 -i 10 -a 2 -x {0.0 2.0 -1 ------- null}
+ -t 0.91 -s 0 -d 1 -p cbr -e 512 -c 2 -i 82 -a 2 -x {0.0 2.0 82 ------- null}
+ -t 0.915 -s 0 -d 1 -p cbr -e 512 -c 2 -i 83 -a 2 -x {0.0 2.0 83 ------- null}
d -t 0.915 -s 0 -d 1 -p cbr -e 512 -c 2 -i 83 -a 2 -x {0.0 2.0 83 ------- null}
+ -t 0.92 -s 0 -d 1 -p cbr -e 512 -c 2 -i 84 -a 2 -x {0.0 2.0 84 ------- null}
d -t 0.92 -s 0 -d 1 -p cbr -e 512 -c 2 -i 84 -a 2 -x {0.0 2.0 84 ------- null}
+ -t 0.925 -s 0 -d 1 -p cbr -e 512 -c 2 -i 85 -a 2 -x {0.0 2.0 85 ------- null}
d -t 0.925 -s 0 -d 1 -p cbr -e 512 -c 2 -i 85 -a 2 -x {0.0 2.0 85 ------- null}
r -t 0.9296 -s 0 -d 1 -p cbr -e 512 -c 2 -i 9 -a 2 -x {0.0 2.0 9 ------- null}
+ -t 0.9296 -s 1 -d 2 -p cbr -e 512 -c 2 -i 9 -a 2 -x {0.0 2.0 9 ------- null}
- -t 0.9296 -s 1 -d 2 -p cbr -e 512 -c 2 -i 9 -a 2 -x {0.0 2.0 9 ------- null}
h -t 0.9296 -s 1 -d 2 -p cbr -e 512 -c 2 -i 9 -a 2 -x {0.0 2.0 -1 ------- null}
+ -t 0.93 -s 0 -d 1 -p cbr -e 512 -c 2 -i 86 -a 2 -x {0.0 2.0 86 ------- null}
d -t 0.93 -s 0 -d 1 -p cbr -e 512 -c 2 -i 86 -a 2 -x {0.0 2.0 86 ------- null}
+ -t 0.935 -s 0 -d 1 -p cbr -e 512 -c 2 -i 87 -a 2 -x {0.0 2.0 87 ------- null}
d -t 0.935 -s 0 -d 1 -p cbr -e 512 -c 2 -i 87 -a 2 -x {0.0 2.0 87 ------- null}
+ -t 0.94 -s 0 -d 1 -p cbr -e 512 -c 2 -i 88 -a 2 -x {0.0 2.0 88 ------- null}
d -t 0.94 -s 0 -d 1 -p cbr -e 512 -c 2 -i 88 -a 2 -x {0.0 2.0 88 ------- null}
+ -t 0.945 -s 0 -d 1 -p cbr -e 512 -c 2 -i 89 -a 2 -x {0.0 2.0 89 ------- null}
d -t 0.945 -s 0 -d 1 -p cbr -e 512 -c 2 -i 89 -a 2 -x {0.0 2.0 89 ------- null}
r -t 0.9496 -s 1 -d 2 -p cbr -e 512 -c 2 -i 8 -a 2 -x {0.0 2.0 8 ------- null}
+ -t 0.95 -s 0 -d 1 -p cbr -e 512 -c 2 -i 90 -a 2 -x {0.0 2.0 90 ------- null}
d -t 0.95 -s 0 -d 1 -p cbr -e 512 -c 2 -i 90 -a 2 -x {0.0 2.0 90 ------- null}
- -t 0.95056 -s 0 -d 1 -p cbr -e 512 -c 2 -i 17 -a 2 -x {0.0 2.0 17 ------- null}
h -t 0.95056 -s 0 -d 1 -p cbr -e 512 -c 2 -i 17 -a 2 -x {0.0 2.0 -1 ------- null}
+ -t 0.955 -s 0 -d 1 -p cbr -e 512 -c 2 -i 91 -a 2 -x {0.0 2.0 91 ------- null}
+ -t 0.96 -s 0 -d 1 -p cbr -e 512 -c 2 -i 92 -a 2 -x {0.0 2.0 92 ------- null}
d -t 0.96 -s 0 -d 1 -p cbr -e 512 -c 2 -i 92 -a 2 -x {0.0 2.0 92 ------- null}
+ -t 0.965 -s 0 -d 1 -p cbr -e 512 -c 2 -i 93 -a 2 -x {0.0 2.0 93 ------- null}
d -t 0.965 -s 0 -d 1 -p cbr -e 512 -c 2 -i 93 -a 2 -x {0.0 2.0 93 ------- null}
+ -t 0.97 -s 0 -d 1 -p cbr -e 512 -c 2 -i 94 -a 2 -x {0.0 2.0 94 ------- null}
d -t 0.97 -s 0 -d 1 -p cbr -e 512 -c 2 -i 94 -a 2 -x {0.0 2.0 94 ------- null}
r -t 0.97056 -s 0 -d 1 -p cbr -e 512 -c 2 -i 10 -a 2 -x {0.0 2.0 10 ------- null}
+ -t 0.97056 -s 1 -d 2 -p cbr -e 512 -c 2 -i 10 -a 2 -x {0.0 2.0 10 ------- null}
- -t 0.97056 -s 1 -d 2 -p cbr -e 512 -c 2 -i 10 -a 2 -x {0.0 2.0 10 ------- null}
h -t 0.97056 -s 1 -d 2 -p cbr -e 512 -c 2 -i 10 -a 2 -x {0.0 2.0 -1 ------- null}
+ -t 0.975 -s 0 -d 1 -p cbr -e 512 -c 2 -i 95 -a 2 -x {0.0 2.0 95 ------- null}
d -t 0.975 -s 0 -d 1 -p cbr -e 512 -c 2 -i 95 -a 2 -x {0.0 2.0 95 ------- null}
+ -t 0.98 -s 0 -d 1 -p cbr -e 512 -c 2 -i 96 -a 2 -x {0.0 2.0 96 ------- null}
d -t 0.98 -s 0 -d 1 -p cbr -e 512 -c 2 -i 96 -a 2 -x {0.0 2.0 96 ------- null}
+ -t 0.985 -s 0 -d 1 -p cbr -e 512 -c 2 -i 97 -a 2 -x {0.0 2.0 97 ------- null}
d -t 0.985 -s 0 -d 1 -p cbr -e 512 -c 2 -i 97 -a 2 -x {0.0 2.0 97 ------- null}
+ -t 0.99 -s 0 -d 1 -p cbr -e 512 -c 2 -i 98 -a 2 -x {0.0 2.0 98 ------- null}
d -t 0.99 -s 0 -d 1 -p cbr -e 512 -c 2 -i 98 -a 2 -x {0.0 2.0 98 ------- null}
r -t 0.99056 -s 1 -d 2 -p cbr -e 512 -c 2 -i 9 -a 2 -x {0.0 2.0 9 ------- null}
- -t 0.99152 -s 0 -d 1 -p cbr -e 512 -c 2 -i 25 -a 2 -x {0.0 2.0 25 ------- null}
h -t 0.99152 -s 0 -d 1 -p cbr -e 512 -c 2 -i 25 -a 2 -x {0.0 2.0 -1 ------- null}
+ -t 0.995 -s 0 -d 1 -p cbr -e 512 -c 2 -i 99 -a 2 -x {0.0 2.0 99 ------- null}
+ -t 1 -s 0 -d 1 -p cbr -e 512 -c 2 -i 100 -a 2 -x {0.0 2.0 100 ------- null}
d -t 1 -s 0 -d 1 -p cbr -e 512 -c 2 -i 100 -a 2 -x {0.0 2.0 100 ------- null}
+ -t 1.005 -s 0 -d 1 -p cbr -e 512 -c 2 -i 101 -a 2 -x {0.0 2.0 101 ------- null}
d -t 1.005 -s 0 -d 1 -p cbr -e 512 -c 2 -i 101 -a 2 -x {0.0 2.0 101 ------- null}
+ -t 1.01 -s 0 -d 1 -p cbr -e 512 -c 2 -i 102 -a 2 -x {0.0 2.0 102 ------- null}
d -t 1.01 -s 0 -d 1 -p cbr -e 512 -c 2 -i 102 -a 2 -x {0.0 2.0 102 ------- null}
r -t 1.01152 -s 0 -d 1 -p cbr -e 512 -c 2 -i 17 -a 2 -x {0.0 2.0 17 ------- null}
+ -t 1.01152 -s 1 -d 2 -p cbr -e 512 -c 2 -i 17 -a 2 -x {0.0 2.0 17 ------- null}
- -t 1.01152 -s 1 -d 2 -p cbr -e 512 -c 2 -i 17 -a 2 -x {0.0 2.0 17 ------- null}
h -t 1.01152 -s 1 -d 2 -p cbr -e 512 -c 2 -i 17 -a 2 -x {0.0 2.0 -1 ------- null}
+ -t 1.015 -s 0 -d 1 -p cbr -e 512 -c 2 -i 103 -a 2 -x {0.0 2.0 103 ------- null}
d -t 1.015 -s 0 -d 1 -p cbr -e 512 -c 2 -i 103 -a 2 -x {0.0 2.0 103 ------- null}
+ -t 1.02 -s 0 -d 1 -p cbr -e 512 -c 2 -i 104 -a 2 -x {0.0 2.0 104 ------- null}
d -t 1.02 -s 0 -d 1 -p cbr -e 512 -c 2 -i 104 -a 2 -x {0.0 2.0 104 ------- null}
+ -t 1.025 -s 0 -d 1 -p cbr -e 512 -c 2 -i 105 -a 2 -x {0.0 2.0 105 ------- null}
d -t 1.025 -s 0 -d 1 -p cbr -e 512 -c 2 -i 105 -a 2 -x {0.0 2.0 105 ------- null}
+ -t 1.03 -s 0 -d 1 -p cbr -e 512 -c 2 -i 106 -a 2 -x {0.0 2.0 106 ------- null}
d -t 1.03 -s 0 -d 1 -p cbr -e 512 -c 2 -i 106 -a 2 -x {0.0 2.0 106 ------- null}
r -t 1.03152 -s 1 -d 2 -p cbr -e 512 -c 2 -i 10 -a 2 -x {0.0 2.0 10 ------- null}
- -t 1.03248 -s 0 -d 1 -p cbr -e 512 -c 2 -i 33 -a 2 -x {0.0 2.0 33 ------- null}
h -t 1.03248 -s 0 -d 1 -p cbr -e 512 -c 2 -i 33 -a 2 -x {0.0 2.0 -1 ------- null}
+ -t 1.035 -s 0 -d 1 -p cbr -e 512 -c 2 -i 107 -a 2 -x {0.0 2.0 107 ------- null}
+ -t 1.04 -s 0 -d 1 -p cbr -e 512 -c 2 -i 108 -a 2 -x {0.0 2.0 108 ------- null}
d -t 1.04 -s 0 -d 1 -p cbr -e 512 -c 2 -i 108 -a 2 -x {0.0 2.0 108 ------- null}
+ -t 1.045 -s 0 -d 1 -p cbr -e 512 -c 2 -i 109 -a 2 -x {0.0 2.0 109 ------- null}
d -t 1.045 -s 0 -d 1 -p cbr -e 512 -c 2 -i 109 -a 2 -x {0.0 2.0 109 ------- null}
+ -t 1.05 -s 0 -d 1 -p cbr -e 512 -c 2 -i 110 -a 2 -x {0.0 2.0 110 ------- null}
d -t 1.05 -s 0 -d 1 -p cbr -e 512 -c 2 -i 110 -a 2 -x {0.0 2.0 110 ------- null}
r -t 1.05248 -s 0 -d 1 -p cbr -e 512 -c 2 -i 25 -a 2 -x {0.0 2.0 25 ------- null}
+ -t 1.05248 -s 1 -d 2 -p cbr -e 512 -c 2 -i 25 -a 2 -x {0.0 2.0 25 ------- null}
- -t 1.05248 -s 1 -d 2 -p cbr -e 512 -c 2 -i 25 -a 2 -x {0.0 2.0 25 ------- null}
h -t 1.05248 -s 1 -d 2 -p cbr -e 512 -c 2 -i 25 -a 2 -x {0.0 2.0 -1 ------- null}
+ -t 1.055 -s 0 -d 1 -p cbr -e 512 -c 2 -i 111 -a 2 -x {0.0 2.0 111 ------- null}
d -t 1.055 -s 0 -d 1 -p cbr -e 512 -c 2 -i 111 -a 2 -x {0.0 2.0 111 ------- null}
+ -t 1.06 -s 0 -d 1 -p cbr -e 512 -c 2 -i 112 -a 2 -x {0.0 2.0 112 ------- null}
d -t 1.06 -s 0 -d 1 -p cbr -e 512 -c 2 -i 112 -a 2 -x {0.0 2.0 112 ------- null}
+ -t 1.065 -s 0 -d 1 -p cbr -e 512 -c 2 -i 113 -a 2 -x {0.0 2.0 113 ------- null}
d -t 1.065 -s 0 -d 1 -p cbr -e 512 -c 2 -i 113 -a 2 -x {0.0 2.0 113 ------- null}
+ -t 1.07 -s 0 -d 1 -p cbr -e 512 -c 2 -i 114 -a 2 -x {0.0 2.0 114 ------- null}
d -t 1.07 -s 0 -d 1 -p cbr -e 512 -c 2 -i 114 -a 2 -x {0.0 2.0 114 ------- null}
r -t 1.07248 -s 1 -d 2 -p cbr -e 512 -c 2 -i 17 -a 2 -x {0.0 2.0 17 ------- null}
- -t 1.07344 -s 0 -d 1 -p cbr -e 512 -c 2 -i 41 -a 2 -x {0.0 2.0 41 ------- null}
h -t 1.07344 -s 0 -d 1 -p cbr -e 512 -c 2 -i 41 -a 2 -x {0.0 2.0 -1 ------- null}
+ -t 1.075 -s 0 -d 1 -p cbr -e 512 -c 2 -i 115 -a 2 -x {0.0 2.0 115 ------- null}
+ -t 1.08 -s 0 -d 1 -p cbr -e 512 -c 2 -i 116 -a 2 -x {0.0 2.0 116 ------- null}
d -t 1.08 -s 0 -d 1 -p cbr -e 512 -c 2 -i 116 -a 2 -x {0.0 2.0 116 ------- null}
+ -t 1.085 -s 0 -d 1 -p cbr -e 512 -c 2 -i 117 -a 2 -x {0.0 2.0 117 ------- null}
d -t 1.085 -s 0 -d 1 -p cbr -e 512 -c 2 -i 117 -a 2 -x {0.0 2.0 117 ------- null}
+ -t 1.09 -s 0 -d 1 -p cbr -e 512 -c 2 -i 118 -a 2 -x {0.0 2.0 118 ------- null}
d -t 1.09 -s 0 -d 1 -p cbr -e 512 -c 2 -i 118 -a 2 -x {0.0 2.0 118 ------- null}
r -t 1.09344 -s 0 -d 1 -p cbr -e 512 -c 2 -i 33 -a 2 -x {0.0 2.0 33 ------- null}
+ -t 1.09344 -s 1 -d 2 -p cbr -e 512 -c 2 -i 33 -a 2 -x {0.0 2.0 33 ------- null}
- -t 1.09344 -s 1 -d 2 -p cbr -e 512 -c 2 -i 33 -a 2 -x {0.0 2.0 33 ------- null}
h -t 1.09344 -s 1 -d 2 -p cbr -e 512 -c 2 -i 33 -a 2 -x {0.0 2.0 -1 ------- null}
+ -t 1.095 -s 0 -d 1 -p cbr -e 512 -c 2 -i 119 -a 2 -x {0.0 2.0 119 ------- null}
d -t 1.095 -s 0 -d 1 -p cbr -e 512 -c 2 -i 119 -a 2 -x {0.0 2.0 119 ------- null}
+ -t 1.1 -s 0 -d 1 -p cbr -e 512 -c 2 -i 120 -a 2 -x {0.0 2.0 120 ------- null}
d -t 1.1 -s 0 -d 1 -p cbr -e 512 -c 2 -i 120 -a 2 -x {0.0 2.0 120 ------- null}
+ -t 1.105 -s 0 -d 1 -p cbr -e 512 -c 2 -i 121 -a 2 -x {0.0 2.0 121 ------- null}
d -t 1.105 -s 0 -d 1 -p cbr -e 512 -c 2 -i 121 -a 2 -x {0.0 2.0 121 ------- null}
+ -t 1.11 -s 0 -d 1 -p cbr -e 512 -c 2 -i 122 -a 2 -x {0.0 2.0 122 ------- null}
d -t 1.11 -s 0 -d 1 -p cbr -e 512 -c 2 -i 122 -a 2 -x {0.0 2.0 122 ------- null}
r -t 1.11344 -s 1 -d 2 -p cbr -e 512 -c 2 -i 25 -a 2 -x {0.0 2.0 25 ------- null}
- -t 1.1144 -s 0 -d 1 -p cbr -e 512 -c 2 -i 50 -a 2 -x {0.0 2.0 50 ------- null}
h -t 1.1144 -s 0 -d 1 -p cbr -e 512 -c 2 -i 50 -a 2 -x {0.0 2.0 -1 ------- null}
+ -t 1.115 -s 0 -d 1 -p cbr -e 512 -c 2 -i 123 -a 2 -x {0.0 2.0 123 ------- null}
+ -t 1.12 -s 0 -d 1 -p cbr -e 512 -c 2 -i 124 -a 2 -x {0.0 2.0 124 ------- null}
d -t 1.12 -s 0 -d 1 -p cbr -e 512 -c 2 -i 124 -a 2 -x {0.0 2.0 124 ------- null}
+ -t 1.125 -s 0 -d 1 -p cbr -e 512 -c 2 -i 125 -a 2 -x {0.0 2.0 125 ------- null}
d -t 1.125 -s 0 -d 1 -p cbr -e 512 -c 2 -i 125 -a 2 -x {0.0 2.0 125 ------- null}
+ -t 1.13 -s 0 -d 1 -p cbr -e 512 -c 2 -i 126 -a 2 -x {0.0 2.0 126 ------- null}
d -t 1.13 -s 0 -d 1 -p cbr -e 512 -c 2 -i 126 -a 2 -x {0.0 2.0 126 ------- null}
r -t 1.1344 -s 0 -d 1 -p cbr -e 512 -c 2 -i 41 -a 2 -x {0.0 2.0 41 ------- null}
+ -t 1.1344 -s 1 -d 2 -p cbr -e 512 -c 2 -i 41 -a 2 -x {0.0 2.0 41 ------- null}
- -t 1.1344 -s 1 -d 2 -p cbr -e 512 -c 2 -i 41 -a 2 -x {0.0 2.0 41 ------- null}
h -t 1.1344 -s 1 -d 2 -p cbr -e 512 -c 2 -i 41 -a 2 -x {0.0 2.0 -1 ------- null}
+ -t 1.135 -s 0 -d 1 -p cbr -e 512 -c 2 -i 127 -a 2 -x {0.0 2.0 127 ------- null}
d -t 1.135 -s 0 -d 1 -p cbr -e 512 -c 2 -i 127 -a 2 -x {0.0 2.0 127 ------- null}
+ -t 1.14 -s 0 -d 1 -p cbr -e 512 -c 2 -i 128 -a 2 -x {0.0 2.0 128 ------- null}
d -t 1.14 -s 0 -d 1 -p cbr -e 512 -c 2 -i 128 -a 2 -x {0.0 2.0 128 ------- null}
+ -t 1.145 -s 0 -d 1 -p cbr -e 512 -c 2 -i 129 -a 2 -x {0.0 2.0 129 ------- null}
d -t 1.145 -s 0 -d 1 -p cbr -e 512 -c 2 -i 129 -a 2 -x {0.0 2.0 129 ------- null}
+ -t 1.15 -s 0 -d 1 -p cbr -e 512 -c 2 -i 130 -a 2 -x {0.0 2.0 130 ------- null}
d -t 1.15 -s 0 -d 1 -p cbr -e 512 -c 2 -i 130 -a 2 -x {0.0 2.0 130 ------- null}
r -t 1.1544 -s 1 -d 2 -p cbr -e 512 -c 2 -i 33 -a 2 -x {0.0 2.0 33 ------- null}
+ -t 1.155 -s 0 -d 1 -p cbr -e 512 -c 2 -i 131 -a 2 -x {0.0 2.0 131 ------- null}
d -t 1.155 -s 0 -d 1 -p cbr -e 512 -c 2 -i 131 -a 2 -x {0.0 2.0 131 ------- null}
- -t 1.15536 -s 0 -d 1 -p cbr -e 512 -c 2 -i 58 -a 2 -x {0.0 2.0 58 ------- null}
h -t 1.15536 -s 0 -d 1 -p cbr -e 512 -c 2 -i 58 -a 2 -x {0.0 2.0 -1 ------- null}
+ -t 1.16 -s 0 -d 1 -p cbr -e 512 -c 2 -i 132 -a 2 -x {0.0 2.0 132 ------- null}
+ -t 1.165 -s 0 -d 1 -p cbr -e 512 -c 2 -i 133 -a 2 -x {0.0 2.0 133 ------- null}
d -t 1.165 -s 0 -d 1 -p cbr -e 512 -c 2 -i 133 -a 2 -x {0.0 2.0 133 ------- null}
+ -t 1.17 -s 0 -d 1 -p cbr -e 512 -c 2 -i 134 -a 2 -x {0.0 2.0 134 ------- null}
d -t 1.17 -s 0 -d 1 -p cbr -e 512 -c 2 -i 134 -a 2 -x {0.0 2.0 134 ------- null}
+ -t 1.175 -s 0 -d 1 -p cbr -e 512 -c 2 -i 135 -a 2 -x {0.0 2.0 135 ------- null}
d -t 1.175 -s 0 -d 1 -p cbr -e 512 -c 2 -i 135 -a 2 -x {0.0 2.0 135 ------- null}
r -t 1.17536 -s 0 -d 1 -p cbr -e 512 -c 2 -i 50 -a 2 -x {0.0 2.0 50 ------- null}
+ -t 1.17536 -s 1 -d 2 -p cbr -e 512 -c 2 -i 50 -a 2 -x {0.0 2.0 50 ------- null}
- -t 1.17536 -s 1 -d 2 -p cbr -e 512 -c 2 -i 50 -a 2 -x {0.0 2.0 50 ------- null}
h -t 1.17536 -s 1 -d 2 -p cbr -e 512 -c 2 -i 50 -a 2 -x {0.0 2.0 -1 ------- null}
+ -t 1.18 -s 0 -d 1 -p cbr -e 512 -c 2 -i 136 -a 2 -x {0.0 2.0 136 ------- null}
d -t 1.18 -s 0 -d 1 -p cbr -e 512 -c 2 -i 136 -a 2 -x {0.0 2.0 136 ------- null}
+ -t 1.185 -s 0 -d 1 -p cbr -e 512 -c 2 -i 137 -a 2 -x {0.0 2.0 137 ------- null}
d -t 1.185 -s 0 -d 1 -p cbr -e 512 -c 2 -i 137 -a 2 -x {0.0 2.0 137 ------- null}
+ -t 1.19 -s 0 -d 1 -p cbr -e 512 -c 2 -i 138 -a 2 -x {0.0 2.0 138 ------- null}
d -t 1.19 -s 0 -d 1 -p cbr -e 512 -c 2 -i 138 -a 2 -x {0.0 2.0 138 ------- null}
+ -t 1.195 -s 0 -d 1 -p cbr -e 512 -c 2 -i 139 -a 2 -x {0.0 2.0 139 ------- null}
d -t 1.195 -s 0 -d 1 -p cbr -e 512 -c 2 -i 139 -a 2 -x {0.0 2.0 139 ------- null}
r -t 1.19536 -s 1 -d 2 -p cbr -e 512 -c 2 -i 41 -a 2 -x {0.0 2.0 41 ------- null}
- -t 1.19632 -s 0 -d 1 -p cbr -e 512 -c 2 -i 66 -a 2 -x {0.0 2.0 66 ------- null}
h -t 1.19632 -s 0 -d 1 -p cbr -e 512 -c 2 -i 66 -a 2 -x {0.0 2.0 -1 ------- null}